# vtk DataFile Version 5.1
vtk output
ASCII
DATASET UNSTRUCTURED_GRID
POINTS 4 double
0 0 0 
8.6 0 0 
17.133333333 3 0 
25.633333333 -3 0 
CELLS 4 6
OFFSETS vtktypeint64
0 2 4 6 
CONNECTIVITY vtktypeint64
0 1 1 2 1 3 
CELL_TYPES 3
3
3
3

CELL_DATA 3
SCALARS vessel_id double
LOOKUP_TABLE default
0 1 2 
FIELD FieldData 9
length 1 3 double
8.6 8.5 8.5 
inlet_radius 1 3 double
0.86 0.6 0.6 
outlet_radius 1 3 double
0.86 0.6 0.6 
wave_speed 1 3 double
626 735 735 
inlet_bc_type 1 3 double
3 10 10 
outlet_bc_type 1 3 double
10 5 5 
resistance1 1 3 double
-1 681.23 681.23 
resistance2 1 3 double
-1 31013 31013 
compliance 1 3 double
-1 3.6664e-05 3.6664e-05 
