# vtk DataFile Version 3.0
Fibers output - vtk
ASCII
DATASET UNSTRUCTURED_GRID
POINTS 6 DOUBLE
0.5319568514823914 -0.32963651418685913 0.7121773362159729
0.7439223527908325 0.7094272971153259 -0.44793134927749634
0.2004486620426178 0.13272824883460999 -0.7845081090927124
-0.7415690422058105 0.2817701995372772 0.6599630117416382
-0.8087665438652039 -0.06339137256145477 -0.6419241428375244
0.6590204238891602 -0.8058475255966187 0.17228108644485474
CELLS 3 9
2 5 4
2 1 3
2 2 0
CELL_TYPES 3
3
3
3
CELL_DATA 3
SCALARS length float 
LOOKUP_TABLE default 
1.8353664149918665
1.9018425783686592
1.6011702520183149
