# vtk DataFile Version 3.0
Fibers output - vtk
ASCII
DATASET UNSTRUCTURED_GRID
POINTS 1000 DOUBLE
0.5359703011019781 0.3617383255164599 0.4566917726408497
0.5854280140467314 0.4035245461628034 0.3939925255341863
0.5266267341707672 0.44858949388140557 0.30069945062862025
0.536614330945246 0.4199499488051758 0.2429590227854027
0.5086604895199476 0.4188720286438051 0.21299770262339623
0.5318561325961635 0.3728184388893174 0.1583930951910001
0.5262170213610174 0.32732288934394416 0.12323594921956416
0.5182924898805779 0.3017533680726381 0.06369911375643467
0.47279603352921884 0.3670621917525635 0.1699532296717089
0.46714973619329014 0.28212187011302026 0.1437997846307959
0.44625614085204013 0.25900737604676527 0.17444275003436172
0.4155908585931962 0.4147479055049176 0.07565353511212392
0.3699948710402884 0.3680740381901608 0.06576091995380762
0.29826691127283333 0.359737332871243 0.03043990106384864
0.27415523518930196 0.3849803132119112 0.02241601741355026
0.5191145006497715 0.4357471703738195 0.09843584425250851
0.5341634725914992 0.3927762045073069 0.07996393356587306
0.6648160020296138 0.4408762752790367 0.11306674674354855
0.4622444664926506 0.4547165713479776 0.24720525920450642
0.3805644203207632 0.42712915719893685 0.2372373148223521
0.33318489714101507 0.39053180118858644 0.20942926647531845
0.33100090700501006 0.3860093795879751 0.13509353473477315
0.3213119781696563 0.43162836256898707 0.19096627701838476
0.30109515373390006 0.4496497322202798 0.15200884035954454
0.32004136476228384 0.4719910899389783 0.12992332899430292
0.24390073304464888 0.46099040531532365 0.08818716032846263
0.23339995994959206 0.4505662755012524 0.0265295355833014
0.2571959811961687 0.4179165907286799 0.008873622070181164
0.11973396812598258 0.4415985950079726 0.04470014220468177
0.2625198734691008 0.4240783279216166 0.16023100840088733
0.41015170427284586 0.4941194530720535 0.17739234955520766
0.4031027414517434 0.5530119332038479 0.05287070601195043
0.3688893497455492 0.5492229030376353 0.0002712322450632021
0.31916965328646807 0.589615661628232 0.0032136493417235235
0.5511044709360059 0.540557710827717 0.17559582358185322
0.5731776765023285 0.4847534168869536 0.12745088908096303
0.5865202300756563 0.5130827208308181 0.07289549716145982
0.6297914882480786 0.4910268424914076 0.057866001243357945
0.495803894895432 0.497918877941093 0.1404677628632648
0.5636291544083446 0.6294181978951867 0.17018877482290795
0.5997937197957849 0.6298603909733418 0.16094294733420111
0.5218895143733066 0.6500480543098434 0.08295285511783335
0.5014577276370835 0.5956313400660508 0.051586111287537206
0.454169821077427 0.6987335997203243 0.00857756573192714
0.49942732971755455 0.7632889356430679 0.027736594868890796
0.6955695881264943 0.4136745159120703 0.3372565673101269
0.6891716638359167 0.44905723638372186 0.3406808183111383
0.7454806391047749 0.4154417666109661 0.2918700883920229
0.8742125562820302 0.4108644776288496 0.24169473453332113
0.9393184862557749 0.47461603276025466 0.18868724138823967
0.9688625372234035 0.5161155778872626 0.238311772222902
0.9512850602390593 0.5429843565914273 0.12898096123143832
0.9090709641293748 0.5353530360098722 0.11751683920829115
0.9020607434920194 0.5374713281824701 0.10534450782406257
0.9276951876133885 0.6069690768841305 0.09843795464827454
0.949434087948493 0.6254687972503067 0.05583881992067552
0.7835372878633703 0.47417521759934556 0.17080512863559383
0.8062409761854735 0.4595906276241918 0.1691068380075995
0.797358377125575 0.4644221223172862 0.1408777350072009
0.8720645951133672 0.5414624846295915 0.0032417469732504145
0.8818873508971855 0.6640318399381844 0.0049686142703453395
0.7460472911484032 0.5260256063955324 0.1067433640224209
0.7172458060061968 0.5134156303112142 0.05999020567367663
0.7468974370836041 0.6237450708789866 0.06747102103778024
0.7842429573782157 0.6575846393879871 0.0843429770211197
0.7879340696672126 0.6103214396236486 0.029839531523968232
0.7220856064714262 0.4694968836718286 0.30881689485947494
0.7330159674819251 0.3251459187099327 0.3101234473035176
0.658381394933431 0.5289069154870022 0.3517101557255573
0.6473171971646994 0.5738990064995495 0.3965397296379032
0.6935635306235729 0.6465875543096036 0.40693887004391327
0.7163054177718022 0.6676896398911984 0.4053152731076224
0.7375803732021772 0.77236101621568 0.3987040311746346
0.7623756906891748 0.8206631752622632 0.39611300971454555
0.752511964844518 0.8278945686957088 0.38179311399079263
0.8142990263683276 0.8883491665135389 0.3986776137721393
0.8434736089248688 0.8729243692194676 0.3563284308550455
0.8399050038163286 0.8859829228969462 0.326336801083274
0.8692815338223094 0.841660848865155 0.3407189100826964
0.8439621257377662 0.9379702882022375 0.3358580666866845
0.7929544204976839 0.9853328410986512 0.4037242074673576
0.7254510017517606 0.5296515937126821 0.3160709633817057
0.7773541439117823 0.5982377642165178 0.3350932463621651
0.7919837164534114 0.6345245957154043 0.4029063442971845
0.8226590561308709 0.6576153068988214 0.374451300217274
0.8352221872758248 0.5935835864422354 0.23876535165126622
0.8265088097713568 0.5865587451833364 0.19527850106746003
0.9350466583436572 0.7137029665481466 0.27717133165616026
0.9653919207665806 0.72594523894828 0.3186495856690844
0.652311274984942 0.6822528198225367 0.33438686050981115
0.7102299680480417 0.6497615408454869 0.22731466829890667
0.7374068203740006 0.7077145574756217 0.21133878217756663
0.7041817964443995 0.7397907019361618 0.2184571118394666
0.6737744046825825 0.7934361856253311 0.1854481118112774
0.6584764734313908 0.8237480044470521 0.22624369543975986
0.6677973187905244 0.8774717312052281 0.2259495123472811
0.7699051034601856 0.8409640710563762 0.1689914756815195
0.7280271923346815 0.8937763699355747 0.21076162003450316
0.8694747122931124 0.9176896618398828 0.19562384510872488
0.7736178554015989 0.9849114445174153 0.15763385576241773
0.7684662808023792 0.9979475464565566 0.13365199852580567
0.7528942382419147 0.9579105471180975 0.0224334916935226
0.8633752256833818 0.7832993462428229 0.12975885615668814
0.893089587373577 0.8192825069352055 0.1840600853317157
0.9802792164273719 0.7705116993670391 0.14756221727841856
0.9618625151792756 0.7562078536676453 0.011133394646041905
0.7719694727528201 0.7365896003243376 0.033677921447681336
0.7439296635631164 0.7061366208598197 0.26567720240928017
0.7789498209976268 0.7681893137453721 0.32608614597021157
0.8465992900273187 0.7683781943228019 0.31994562606392585
0.8052816024276901 0.832912868364849 0.2639174970257968
0.8554165033820931 0.8426565392993923 0.2500864931013952
0.9459912589424977 0.8734273611397161 0.28843723943815136
0.6640790723551852 0.6797457194203852 0.15285801963844248
0.6366086708112391 0.7038317308448419 0.14381328662039905
0.6489298584814895 0.6540118492189241 0.07758222121124891
0.6187517382026455 0.30611311066251623 0.2517151585789723
0.6765775372488554 0.3187261042893299 0.2370599267347353
0.7201667062302718 0.36541786105382534 0.21290629690699525
0.7726834858431989 0.33824407279010693 0.06682796139592129
0.7462074779861112 0.3840361123496556 0.030725610390817115
0.6522415391342156 0.2368834677510946 0.22922307745913295
0.7338412558491314 0.24585660820816035 0.17019528491720193
0.8019953788118072 0.25419678690983527 0.08565261309352434
0.6782844682064813 0.23907855040977966 0.08609753242733553
0.5268790522821235 0.2792090349712142 0.4117755637892899
0.46023328476354675 0.28586656123295484 0.41333945231530234
0.39066681047433993 0.21853157974228032 0.33109934620522674
0.37370473150991257 0.2321245124857787 0.306786481481935
0.3351462712870812 0.24029803301093544 0.31227444942457816
0.30989782759820717 0.20406528407268543 0.38749830573027566
0.4226409997142603 0.15895266866269042 0.257104295577551
0.33676574387452707 0.1257853061631391 0.24571884488188578
0.3643734364852398 0.06029747605229008 0.2676673644149644
0.2826820958646328 0.03988472901901574 0.24306523099764832
0.3119177234738637 0.00817233959977004 0.20076650669362206
0.37339705345790264 0.1092505765192503 0.1517849448673848
0.3392265745333607 0.17448731633896908 0.11044037583805444
0.2847928463503909 0.19725075012717497 0.12571389808010602
0.1813905038848277 0.09383552272716411 0.2349568008573787
0.15883919811598546 0.0374007575472638 0.20559376001780028
0.1638690899571441 0.029432619479331734 0.12206672302122379
0.18661776240948147 0.10634320608912262 0.10871304168586526
0.20623016312441367 0.033642745734798196 0.05609889294380843
0.1138593391243391 0.13725737785777448 0.006129699446176029
0.08546529296918948 0.08778313498439938 0.004098662626577654
0.536116958005335 0.19630765281122498 0.42126703994819104
0.6110669862357961 0.16323056929950663 0.43978935065111435
0.6491699143641912 0.1818741509207027 0.3884053985296363
0.694990642850218 0.12035043435111015 0.40699414676354717
0.7202706079051513 0.11401013503116286 0.42494461502806546
0.7329131136295389 0.13126192359913758 0.4209897596918747
0.8020050258020155 0.11224312596420738 0.42384319001903203
0.8108935047183765 0.11173645912612795 0.3851606354652306
0.776839254480716 0.04324313241369171 0.4067529870274409
0.7538436042599496 0.009747709662865978 0.37538632029180574
0.8159309190542894 0.006096181178954496 0.42607336905495574
0.8811409520832449 0.012603548429842126 0.39332293256195716
0.673025119326057 0.05533348740077437 0.4192717133764112
0.6957589049224893 0.012050461057164563 0.4555288943370852
0.5561626340896393 0.11896099916977942 0.47497085068151057
0.5074257333363982 0.0964940743601379 0.49158114805454767
0.4703961128183568 0.11723614766126522 0.5052582814897969
0.40821469312763126 0.09672111029808517 0.49168077138505883
0.5515941051273511 0.04174783701689122 0.5618466157276214
0.5237964153061588 0.017224454977785908 0.6477561540451902
0.5293831613086177 0.07989471821098226 0.4004619400867536
0.4901008792517013 0.02991017375764471 0.3671804001122986
0.4985937406197538 0.002586687805079868 0.36441261876308506
0.5718366681259323 0.18781573586431244 0.3071332132619342
[...]
POINT_DATA 1000
SCALARS path_distance float 
LOOKUP_TABLE default 
0.0
0.0901296243938305
0.20925996416194906
0.2744821432042104
0.3154731162123652
0.3905772714891536
0.448349838653983
0.5136279620506616
0.39178396114214253
0.4808386724231457
0.524540085340201
0.5119454846409873
0.5779402405365204
0.6583266525935401
0.6941451350972703
0.4317420981056539
0.4808764745484148
0.4581818519243068
0.293189970630302
0.37997738490955146
0.4459885448490616
0.5204937334163698
0.4552907548334125
0.5027372681447432
0.5394233007635904
0.5891838959923202
0.6525920295966899
0.6966826615370314
0.7221671602125284
0.5220602938110579
0.38879376405687993
0.5267200190036488
0.5895819117702161
0.6537089807887835
0.3664484816359958
0.44338534110072353
0.5062889497833069
0.5571293795680711
0.4446162782673553
0.45635003909876637
0.4936804107863312
0.5552332743448591
0.5109348564295714
0.6322442008487917
0.7133780524884157
0.2144403527413112
0.2505595420749732
0.28192493359777626
0.4201653915303347
0.5255828342471099
0.5967000421077028
0.6171375527849546
0.6615413032790036
0.6757467954014318
0.6918597166492996
0.7431384229604621
0.421762880023506
0.4488008518266516
0.456140114719792
0.630667767638556
0.7536422180850386
0.5123049827015285
0.5686467510339706
0.6176241804317972
0.670769896925738
0.6748983289886243
0.28247013254600295
0.3143190293980542
0.24122804634714973
0.3056981589816832
0.39247655757434996
0.42354305905049444
0.5305590824774662
0.584915496358894
0.6037475316197729
0.6702618694141679
0.7239511042071605
0.7568564020015173
0.7673920276687866
0.7556342928181423
0.769694728388094
0.317182234746126
0.4052722239631381
0.48356254765977325
0.4896954675008616
0.4658872127083571
0.5107913051270485
0.6267244279327485
0.6795557987364275
0.39566867989222376
0.42224835541957073
0.48822079190816564
0.5349482129342772
0.6048913432392795
0.6579678230060795
0.7124949127751836
0.6317647421134168
0.7110594034243178
0.760256790060079
0.776207209495891
0.8039850451051721
0.8200334077733054
0.6562576442910372
0.7278562101564819
0.7751989181690373
0.8128005945660741
0.671501250425319
0.49831085043387285
0.5917249210187392
0.659652767448545
0.6852526823916862
0.7381652904028708
0.8412255134093354
0.5148374944576465
0.5524747911551031
0.5958200640969713
0.26574940547089104
0.3267222392903145
0.39501230911090246
0.5526045266065645
0.6166456823360451
0.34587558057728546
0.4469859722785839
0.5558988109004537
0.4913677596907711
0.09439915476635916
0.1613948765057937
0.28842608971883377
0.3210388990798475
0.36083436470936747
0.38799388039811555
0.388662125855406
0.42552833714621696
0.49990963918919656
0.5270713910809802
0.5874831419423113
0.5276989185193494
0.6121549854444632
0.5745574585115699
0.5845191401979903
0.652014564340202
0.7360714316719723
0.6297169795891855
0.7215769373802985
0.7592268876277092
0.81630619802576
0.17835191639968787
0.26234403614412427
0.3289753111075091
0.36213086649139603
0.3937772776553914
0.41552809466339075
0.47553821286917464
0.5152320637221622
0.48618353157884303
0.5375119940186704
0.5434664381641223
0.6167281971292013
0.43184762384833686
0.49271492663251837
0.27462461889882206
0.3308024631459457
0.37539495555829133
0.442266059133835
0.39094375927939107
0.4845095468300174
0.29680092458649154
0.36855894344764784
0.3973054596263784
0.24042635725922715
0.27987944868688897
0.3238304791479649
0.33068221501459655
0.4218816633877931
0.44587317072676447
0.49512527163891323
0.5502382046933277
0.6142267139638957
0.7750323556218367
0.39122032215240593
0.45430559379576696
0.47388300956212004
0.49925703433906926
0.5353567144465616
0.6552861830330954
0.6972473856484079
0.712055871804232
0.7166301632892558
0.788804866273819
0.5608511989864429
0.6176568109990882
0.3245154910471658
0.40366200634633864
0.4631912835292639
0.496722056758773
0.5785523748975634
0.47199815224360137
0.4090606139614134
0.4593902431022824
0.501614208667883
0.4776260506336686
0.5643325029315995
0.6189122162698654
0.4379466340089164
0.5175052481178817
0.5765742394221348
0.5809209710826991
0.35654849058700555
0.47396917270287214
0.52200098448816
0.5644473595606672
0.582544205756429
0.4827904463018577
0.5627410037574296
0.48437431548316445
0.39009324122149397
0.44731018859159755
0.4675639158133286
0.46535012685063093
0.12559750676665707
0.24561646353194308
0.34593886038771127
0.43060056435442096
0.49384916876967966
0.5472993103600574
0.5669780597904294
0.5739104955204077
0.606664199286456
0.6380617540575391
0.6652080164224161
0.671852811303188
0.7476705713521759
0.36927860173103855
0.3978004141429302
0.49754680356943526
0.546238971279765
0.6130895860371584
0.6607354535918712
0.6953080153008688
0.40249905259555546
0.4640451134016236
0.533631284927158
0.5895229110840782
0.2745743563065882
0.36685201427142083
0.4399547044213013
0.451436403977335
0.4650399249580952
0.48569844830248354
0.5001884786567122
0.5801212159763515
0.6192818797055835
0.6535772757163688
0.6939083250216063
0.7391280203434105
0.8358244399773529
0.5612884506565761
0.37454886238311536
0.40629915684119305
0.3775086828008926
0.4363104103186445
0.4829573507672921
0.5423021132428721
0.46539656600926216
0.5514475638140643
0.6154192961182925
0.6246458668743287
0.7088626102470732
0.8381891107104612
0.5671314197802373
0.6333554635882988
0.6722129926510225
0.686797661837308
0.7806705333791666
0.8270049624152275
0.6423035765504351
0.7088958007155458
0.7736650643546475
0.7486508303028492
0.7517754065022584
0.6782409755421432
0.7933824451303392
0.8401758560015757
0.12773060660882515
0.20770079371842132
0.24005536195515803
0.38382954254486756
0.45268634209234415
0.5798564695069733
0.6295671991483811
0.7192363004496553
0.7193332821237206
0.81142860898706
0.8688222541191405
0.23619460567963296
0.32056650337687465
0.4109943097044371
0.5357672343202348
0.6638079918592621
0.4251224586649563
0.4503530397389193
0.555084227613801
0.5601114557603518
0.5827630214431804
0.5920269843868071
0.6597046460519429
0.6768316624277273
0.7161597734153619
0.7160539715154423
0.7313507789044843
0.5186297293419948
0.6443875745534753
0.6854215592411039
0.7123522863546587
0.8094442897669288
0.8607163193950422
0.8660781654745036
0.7396875610847903
0.794952067797088
0.819784638314441
0.8198214200767779
0.7280870389350725
0.3256137952934004
0.37969930651146844
0.4212531197921922
0.46759073365543563
0.4978580317951198
0.5685511359996571
0.5730938483496572
0.6362812032364873
0.6975398826376267
0.7490697384445884
0.7753695259307929
0.7777003734549611
0.8183161835913013
0.7829592401067603
0.8382758000419671
0.42143459816950946
0.3353855211895715
0.36997017762721335
0.4534120085760955
0.6288557279681791
0.7111396467298811
0.7855022007292694
0.4780360363128305
0.5645848739099658
0.5691589819057457
0.5812917185762703
0.5304633647167729
0.6175030964046532
0.6367425891580348
0.6489594203309031
0.2630029642592691
0.3447806295331033
0.5159053178057553
0.5709304847837612
0.599779246375459
0.6159277114719018
0.6145099120797967
0.6572151233709018
0.7343303006022258
0.39133629289860533
0.5043686094909523
0.3947682564008186
0.44976808205438285
0.46484934640691594
0.5682879013891451
0.6227145101548035
0.6538923207300674
0.6235337093817668
0.6836516063499758
0.7117903373718597
0.7751904918624852
0.5079094037735099
0.5117367189138372
0.5744059733042636
0.5815345865843904
0.6117044652952942
0.6561633664774615
0.5852036636377839
0.13663266832573773
0.2193615407129989
0.2567197456370477
0.36688220205014166
0.31501813603469536
0.38600990738559054
0.4686442670676646
0.4552352337610027
0.541872645434154
0.6253744422146386
0.6772196660649183
0.6376871964041365
0.6751909004917498
0.7289806413279829
0.6487424031128338
0.6073575551839174
0.6752847988151605
0.7134738039783909
0.7513478184720309
0.7828550224459213
0.7873108672887904
0.8155927817832208
0.7863640864135448
0.7277904899913812
0.7912992410781358
0.8247563860594022
0.6074733926509139
0.637877152872485
0.70995991289989
0.7649127102629507
0.7290727761342708
0.7406896421637181
0.8389514502003286
0.8889989883281912
0.46641011355856843
0.5143951103234453
0.5553734596408673
0.6438394896036967
0.6663419151628983
0.7302453030112988
0.7526691509283637
0.7565114632120994
0.800181730100796
0.8028898504187707
0.823578832809403
0.9118373849797397
1.0298736550948115
0.7680149356371595
0.6986391911992784
0.728289296237573
0.6085276190471192
0.6673466277170222
0.7511788269085873
0.7393340860552641
0.7837039293688087
0.8695608924665197
0.752459857854044
0.797191310953443
0.22544830361637186
0.29133006919873916
0.43566407572362864
0.48984265732221033
0.5729292744659535
0.5994932564283739
0.6516524103107499
0.5111336227822078
0.2642951078237759
0.2977931677540006
0.36351172690661565
0.44476248391862316
0.40157211638349694
0.552338945690973
0.4107097690422722
0.4757505618419928
0.4845883005149514
0.5162090812626998
0.5748710100248731
0.6620617721755172
0.7409352422120029
0.7945992499141831
0.8429044207787123
0.9020720903949231
0.2660947927552008
0.3540146617936544
0.37303235416878733
0.5611686376782944
0.6143269082397613
0.721679712871679
0.6298516356848722
0.6461590402131464
0.41741462728397893
0.4910247683705453
0.5722108746454483
0.6379018050692387
0.6858882882796682
0.49424186915486684
0.5333135986485638
0.5115852168513125
0.5324471062339042
0.6457805433292914
0.5978132341144842
0.6687950461172282
0.5434697215837304
0.28568986428824
0.36108726731013824
0.43973396427506406
0.373701398019117
0.48954071314451014
0.5668398386623881
0.6089607266520833
0.631332172952875
0.6592302820069045
0.6928742852931832
0.6090736934158177
0.5098634263666151
0.5246646986087207
0.5807137091841409
0.6830098228770307
0.7842234242828412
0.5928257223929627
0.6571001240245035
0.7921812321571311
0.8434482668321475
0.8834682741815186
0.9428852602163124
1.0341592238937012
1.0731591684887996
0.8994911730661589
0.912060998835864
1.0384741173842278
0.607514639173736
0.6672473143338588
0.7898182288947302
0.8736460848835153
0.6855051081346898
0.7876243384701551
0.74760417408748
0.8192991226976191
0.8591922015353921
0.1435278303450624
0.17160083560802095
0.23359817736145724
0.287850470092688
0.35343801226020954
0.2744958168008828
0.34437881130937464
0.4445383462348382
0.49231868404245444
0.5667193630520095
0.7005726874967093
0.6280934099491993
0.3784464876114789
0.3800533180240768
0.4612108637502004
0.5053206557967593
0.4646488623636883
0.5731032075135267
0.5016969906014406
0.5404142726350472
0.5874633347880858
0.6609265584976606
0.6987580570406632
0.7101545902009697
0.6978109503126353
0.4070574526545596
0.5072767902199296
0.5568611625152593
0.6151712927504077
0.6390670231970826
0.7202509950826212
0.8027818266662915
0.8613197558572043
0.727843955945052
0.7677717071765857
0.8129776958582834
0.5628753544035799
0.6211099772773034
0.7099700126427928
0.6805599381248308
0.7056400194332262
0.772109179456699
0.5821304435927219
0.683847968480964
0.7573117230177192
0.7579921395780952
0.7586348724690891
0.8129601892929841
0.7712342460204678
0.8287432680525149
0.9111555042379876
0.7149444393580564
0.7715136679253328
0.8152201252850002
0.29196334839099986
0.368586869458053
0.43541988032739587
0.47288943606078343
0.5224077205175698
0.5571498076176106
0.6107964880735212
0.6775884947047569
0.6587273857414677
0.7043880105605979
0.7589532056223118
0.5370068500080066
0.563071294152873
0.688208440804387
0.7572254057175968
0.8620381325858331
0.9002305271846207
0.7586136819170685
0.8124356752024464
0.8297058004683409
0.5468798398047415
0.6072333768661976
0.7266131051772705
0.7865631023346131
0.807215474012519
0.8392158927330655
0.8898783637071139
0.9005698065575092
0.2958981854093301
0.34165251598522417
0.4011611755359986
0.46996063635830704
0.5298177708662771
0.5875499972648897
0.6459742695577169
0.6995316813584582
0.7275541400606084
0.7799657265668494
0.7967677151092051
0.8515064807617552
0.9284002820777989
0.5747343213216651
0.7305145900873334
0.7977644117399721
0.8255917779289341
0.943302497242992
1.0245468935814384
0.47113669823925625
0.5045849325606876
0.6404313871341288
0.45897298212657384
0.4970117306461542
0.6062492252296698
0.6745186227031289
0.7606718647450743
0.7708273528173086
0.8378523487778737
0.8500893663345572
0.5497220650337796
0.6163641323873124
0.6620629732390377
0.6117065637625768
0.6655123781863436
0.7494384833242249
0.7986733708670762
0.8528462338491148
0.7201513350068107
0.7546562388013622
0.7390058110892945
0.7819137361280745
0.810963048591376
0.824974473853469
0.864195566722977
0.8675679437030144
0.8319437699896628
0.9299406108898788
0.35485087379787766
0.4459585643452773
0.5304180412626632
0.5681657462187812
0.6588784452017443
0.7378156001225789
0.752178389192914
0.8283351650158602
0.9045549891628695
0.9449275408563604
0.5515446834360356
0.6150429618477398
0.6893053790630363
0.7069012631577314
0.7803685858011953
0.8229579937755624
0.9070173745132379
0.7063753648526772
0.4659902199016438
0.534713519273281
0.6062538032073849
0.6955431725120053
0.5619480206880854
0.363352399934061
0.4173603707499321
0.4911921124931976
0.6555481673504848
0.79004605841967
0.8528946788614299
0.9170824425705119
0.824269867356845
0.8888880624648434
0.14788671922929558
0.23832855490140734
0.34597449233707833
0.5037110680126021
0.2709310817487758
0.33377409282686227
0.41313054723644915
0.45269541538225744
0.4894497645590127
0.5554097578152185
0.5716832032073864
0.6391534182460062
0.7401934597748167
0.6198712526834455
0.6973483007722128
0.7410448942785298
0.33704677426867474
0.3689073269146198
0.37221408115899307
0.5132949910611015
0.5592945603371411
0.6857715980137535
0.7631095358605334
0.8241929897388737
0.8173438840256985
0.8577576461148905
0.8846069860087662
0.5163532539565145
0.5706288587148505
0.6549182254719471
0.725794581658666
0.7750819100465888
0.8666871828924319
0.7488391125691345
0.7844074108415863
0.8517311451813186
0.5863421464607042
0.6990918838272251
0.771121251289235
0.8318883800589574
0.8370874560064241
0.7858079616719661
0.6454562457394823
0.7414366272984549
0.8600242938307425
0.9563868751536864
0.996963996348525
0.7735199042150508
0.7812113040943688
0.8657964285675593
0.4130990213289675
0.43648734006513756
0.5271835899536055
0.5997702104594986
0.6525911884500869
0.7421178968782479
0.6551426464426295
0.6096942466572738
0.6197513408273887
0.693418496050252
0.5833662155485247
0.7168958207964473
0.7835288117005984
0.9109226656349318
0.9945660566209572
0.47118714524306493
0.5324136426397921
0.5086903227439385
0.5619755482442892
0.65940087948626
0.5110536211232265
0.5904230583109447
0.7871045662364065
0.6223683939658078
0.6783891824715769
0.7339788886392413
0.769689651522836
0.7091642319807719
0.7366091240154529
0.5217256026635204
0.5815671874905662
0.605330503384405
0.67433474278681
0.6121371189067516
0.2965519962956292
0.363733872360393
0.41251056429660776
0.48303539883388974
0.5056283313276507
0.6068317798259466
0.684023601158334
0.7911520879502602
0.8174657912382224
0.688749937802989
0.5981085892687475
0.7064114670790163
0.735908065711073
0.7975251161662504
0.9005083989351291
0.8049682385205797
0.8887783749937512
0.9134106900069234
0.39069297953286447
0.4919416092578311
0.5575732692969197
0.6295197489198633
0.7151329242526016
0.15709094211213243
0.17295543187977025
0.215454329446884
0.2868329367430479
0.31211025277417137
0.3904434479703909
0.39587000391600835
0.4767678233521449
0.5496597930457792
0.4670707443197302
0.5034407831050591
0.5642609050506481
0.5709980581291204
0.5941872067217883
0.6527424856192047
0.7136200299559251
0.7526878771451264
0.8112818201389927
0.8115426164762282
0.6532286889890069
0.6628232921343515
0.6960281313438437
0.6738406042519817
0.7096872898724579
0.7997945563215624
0.22233458255041047
0.3024980107575734
0.36835205291276535
0.4028547919967629
0.37823465976701903
0.4535266298368315
0.46728384650098
0.3879941303766469
0.4933639229905765
0.5209976929733179
0.40687558948738406
0.30384559356425955
0.4267068116413074
0.48319625719036924
0.5710206834382074
0.6130765286336098
0.6842120715742153
0.6942523850699464
0.7499586584206955
0.7847869689691152
0.8223472715879121
0.8302383262813002
0.6582149491262747
0.706104625039423
0.6075525136987953
0.6733228895171557
0.5292173738220876
0.5678083254657421
0.5744325958855223
0.5808958120996368
0.6741673469425725
0.7161471216536797
0.7351900761653881
0.6933578357220118
0.7503240996624498
0.5369284489675168
0.6217756764179457
0.6653383063672578
0.19907348505598613
0.331915743870549
0.38742992885331506
0.4158370612168649
0.49956594076467586
0.4257101415863839
0.4992751800430314
0.5809107058980043
0.6596078119538015
0.6736045313756944
0.7237654319731017
0.23613092924002305
0.3285557970283919
0.3615213768563562
0.38496010376820355
0.48238818189035604
0.5499392098719208
0.615100597180144
0.16104090620848013
0.23356518983777624
0.2702367641642005
0.30569797819752625
0.48023015641945765
0.5169720323758641
0.583514404156075
0.6513663897189637
0.7634796733337823
0.7726542094620976
0.6592190929359145
0.3222924714068
0.39689240224350236
0.4412802219042667
0.49044194009560466
0.5544037186729005
0.6112620837533332
0.6528911217331965
0.4822057831471343
0.5221715718689132
0.5725345114463202
0.5786253070312817
0.5372586515821354
0.6408894313799827
0.6830633214009654
0.6136031132612398
0.38926302647492217
0.5277124315780934
0.6914566793121899
0.2902190534827241
0.3780895494703208
0.42367439129764306
0.3970121563328537
0.4102789947873711
0.46410945485748584
0.5134448652536717
0.4040248672303889
0.47640767491659985
0.5146001642881904
0.583108654550472
0.586781956644514
0.6169507066272352
0.666448909551671
0.7264000449550445
0.7879026781885469
0.22382310491993693
0.3275743834471689
0.4421986131154661
0.4944087021677923
0.512333011773787
0.5841630486985023
0.6165535392280349
0.6082316434311026
0.6913104132493931
0.530700723970069
0.6591199996966657
0.7376633820053631
0.7926598325829909
0.8629301495308696
0.83107881882401
0.8715593423588361
0.5662520963250797
0.6809374132219493
0.7854341006084364
0.8932956713955038
0.9888861476841496
0.6900972097225608
0.7221742328602059
0.7228240739265449
0.33590598122467435
0.3792181613445146
0.3444180125077251
0.4189051082703068
0.4965380662078238
0.530651381632915
0.576356791031968
0.6400722155654841
0.7344737696904328
0.8023478285956727
0.44805851622579385
0.5450491853141689
0.612436923623149
0.6190231843674031
0.6639623035595225
0.7130040929778972
0.7166807409700157
0.5489601300731876
0.5817385350289948
0.4800575381159005
0.5291315645987631
0.5327357296041861
0.555595136836091
0.6634892544693423
0.7600279642441906
0.9107981976685288
0.7734976686812336
0.5725647080045182
0.6872429660792202
0.5742944013732372
0.6106765354020937
0.6368106744994612
0.6556016198372258
0.628738741628661
0.6779884152747785
0.6060048992166347
0.34685554622766496
0.4753639413852852
0.5301370370228193
0.5639889360308903
0.35683805218665365
0.4614239666648164
0.609726996695221
0.6433908782415765
0.7235101978323112
0.6825166586690089
0.6212156476371593
0.5260685309406177
0.568386884033315
0.588422361478569
0.36575931260093
0.4327250354978007
0.5891485595237763
0.3693174785685933
0.4264873762934765
0.4768898967336195
0.5145288344543986
0.5808424419877921
0.6478869690774082
0.643502566607328
0.7017326790604324
0.7200849420957142
