# vtk DataFile Version 5.1
vtk output
ASCII
DATASET UNSTRUCTURED_GRID
POINTS 1000 double
0.68685819567 0.16014219882 0.46299805995 0.70856921975 0.20068368445 0.48984151034 0.79333215496 0.19855601259 0.4490995809 
0.79408860228 0.24052021346 0.48324461091 0.81762516039 0.28395167129 0.50090667691 0.82620202004 0.33137723421 0.50177176047 
0.83928384504 0.32860344917 0.46060806685 0.8800918285 0.38088071399 0.55077436141 0.82719307112 0.30894292447 0.54581381647 
0.7881791311 0.2943309732 0.56935499022 0.77492299991 0.29403980873 0.57986161004 0.86936836552 0.25998941843 0.49240462224 
0.88243728606 0.26417090696 0.42012211173 0.88833155815 0.30379170878 0.3914681112 0.780499146 0.14915540359 0.53650320609 
0.82490884408 0.19865670846 0.5671570203 0.80329079726 0.22033774441 0.58596009715 0.88592881072 0.1901705899 0.5928567954 
0.89209677394 0.16014458148 0.6123946271 0.75953915617 0.30711070521 0.5272435688 0.81967552951 0.34664864479 0.62449367113 
0.88463583038 0.39910249597 0.61317102336 0.88351961679 0.48861433172 0.6151785042 0.891380114 0.53526780816 0.61028889777 
0.88803004802 0.58369854383 0.59140561728 0.88099420035 0.61123631667 0.63656479746 0.8686483236 0.66458975617 0.65956051232 
0.81357274512 0.66247761601 0.68146602159 0.89834696201 0.63265456528 0.54311944032 0.87283219955 0.68671763893 0.54820045255 
0.89505469478 0.71903096929 0.53134476579 0.87560277087 0.7689976635 0.57927693273 0.88492363267 0.82578439346 0.54562671474 
0.87229270294 0.89521090009 0.56457531918 0.84289482666 0.66683939264 0.50797875234 0.84812161461 0.5197600135 0.64191460534 
0.8217981311 0.44192598 0.68754864448 0.80921234758 0.46469879888 0.73872865785 0.8555202775 0.49594090332 0.74355048955 
0.85091720519 0.5140012746 0.7231990418 0.86399095853 0.56412101822 0.71544332553 0.86059297409 0.58800411241 0.74481587694 
0.89396425734 0.70758558434 0.79434583175 0.75112154389 0.54263124624 0.78937456046 0.77359274237 0.55417250251 0.79483903332 
0.75795897928 0.58947201598 0.79323359942 0.76024616962 0.61474412067 0.83793641109 0.76178829535 0.64398052611 0.85348182646 
0.75330044222 0.64430363464 0.85352003715 0.74734928505 0.67977341499 0.82135888443 0.71780759824 0.72508291437 0.86707357163 
0.70753557238 0.64059705541 0.84215092815 0.71124280685 0.6278692726 0.88531638055 0.83119506777 0.53053346747 0.86739729499 
0.8817559048 0.60368336084 0.88915675892 0.71586463547 0.56041578649 0.8267420224 0.7187107621 0.54565730034 0.84908291948 
0.71098903508 0.55942069563 0.86479332477 0.6631996338 0.59667332028 0.8898705821 0.69596737885 0.52890483382 0.8398680502 
0.75985587931 0.56374656104 0.86158483262 0.74294682597 0.48678660658 0.87520950153 0.71288221431 0.43060914134 0.5778842297 
0.74495685297 0.45393243108 0.53005597354 0.75066414236 0.52429005711 0.49806814137 0.72963474309 0.55706965395 0.48559096254 
0.73458068894 0.61225900089 0.49952782412 0.74717215467 0.63050473134 0.43960736671 0.76641937983 0.65349670898 0.46203335326 
0.70825112498 0.66758470991 0.43750018503 0.74616507287 0.6894254112 0.50100902474 0.77272456883 0.70111282762 0.49093018353 
0.74581094653 0.75400529383 0.47418499121 0.7362635521 0.74585563057 0.39681335203 0.67369241643 0.78926912823 0.4724242033 
0.66141885166 0.77468230583 0.48042632504 0.61651280492 0.84254020621 0.42558217339 0.70945536027 0.84827445211 0.40014558488 
0.67047705256 0.88727269546 0.49339768441 0.8198681226 0.43954660159 0.5132680746 0.84595433023 0.49792981668 0.48901567843 
0.87995876436 0.48988001764 0.50305595812 0.7592669891 0.4902626316 0.58864570179 0.80830667247 0.52075087606 0.5758039695 
0.84311333986 0.51806283953 0.5405218515 0.87977242849 0.49008355701 0.55311592574 0.85733091591 0.54403521232 0.50138257587 
0.77716718326 0.44900743804 0.62743203476 0.71744045397 0.61945944452 0.605699495 0.72553439365 0.66042156433 0.65054573376 
0.69205200861 0.66261481816 0.65461185885 0.65114827504 0.6616612018 0.69056345487 0.621850796 0.68778119343 0.74557480216 
0.56280234738 0.70000233536 0.79883998458 0.55920047685 0.68030054388 0.81934187799 0.60254832738 0.71864677858 0.87556319482 
0.57321707191 0.72860946355 0.89653199505 0.64319422017 0.65733499642 0.63041991709 0.74586475585 0.72429892504 0.70983996895 
0.75672096837 0.73013306414 0.75306932245 0.73387197456 0.77176795404 0.75274668621 0.75269054391 0.81040775704 0.83537095559 
0.75816018295 0.84398129243 0.86591321497 0.79213301101 0.8523266799 0.85634929933 0.7320157553 0.89706620572 0.82724790857 
0.64294228597 0.80361765675 0.84258644154 0.62300364469 0.87169038366 0.85496172581 0.56604761257 0.88532094294 0.86861582908 
0.49497569032 0.85959801684 0.89098131354 0.83342318126 0.77265854184 0.7604679448 0.82357424321 0.7803136574 0.83546849898 
0.83872311095 0.7836378885 0.8408875644 0.84150544525 0.8198947923 0.84258246384 0.83578797394 0.84959973037 0.80492844577 
0.85348148568 0.88309717296 0.84201248696 0.89974640476 0.88647029468 0.8646404017 0.86541456301 0.79072288672 0.68645626526 
0.85631467924 0.84597765789 0.67503731089 0.86831652912 0.86037769655 0.73791492941 0.7757642003 0.64403768798 0.57535712591 
0.69146891525 0.70085801389 0.58101813349 0.70173674517 0.76150259964 0.61333785344 0.71945449701 0.76918332034 0.5713646415 
0.79722230596 0.80185850919 0.59192689471 0.77853750418 0.82257813657 0.64928563826 0.78764470683 0.87964880174 0.66518675874 
0.77982688048 0.87859601893 0.58622871377 0.81558467286 0.87208762695 0.55766627277 0.65952592055 0.79219880249 0.6240834408 
0.69861635604 0.84056047616 0.61874129682 0.74020890592 0.87114369413 0.68793192145 0.72254116357 0.8799980101 0.74816366764 
0.59881517343 0.79538554735 0.64849824272 0.65287266423 0.84243539299 0.71500791978 0.61794276973 0.85010388303 0.73621133085 
0.565305683 0.85362500013 0.79912956452 0.60869737268 0.88151846778 0.56368222478 0.62604176108 0.16009427803 0.45560347228 
0.58678990186 0.19681759745 0.44197569632 0.56097561408 0.23909025101 0.42664834337 0.51818365886 0.26708681945 0.36912929213 
0.47885946725 0.30264047586 0.33742924143 0.48286036451 0.34296125438 0.33334167158 0.49972849261 0.40479814436 0.32510699961 
0.52518947149 0.32002397051 0.31358516542 0.42110357571 0.27897837854 0.32443245228 0.41050667843 0.30998595684 0.33029808632 
0.39507264516 0.37570996427 0.31580176714 0.39487428666 0.38965346393 0.33476319164 0.34554779861 0.4147735051 0.33043395683 
0.32950174934 0.44799821639 0.29761782543 0.25183754555 0.49470331853 0.2978719562 0.27103186552 0.38030916791 0.31183965443 
0.19115188469 0.42302446672 0.30596025146 0.16258694822 0.48379364839 0.31332522373 0.12793542585 0.42014677354 0.27916717744 
0.41028857629 0.27198401085 0.26508147013 0.44329194155 0.33804774462 0.26693797739 0.43919433917 0.33334733247 0.21680841538 
0.41085253666 0.3507109004 0.16421203147 0.35064551973 0.37863733193 0.14354460496 0.46742459682 0.38653288598 0.26799909902 
0.39667108649 0.37321252599 0.2250504266 0.4049136607 0.39832297478 0.20797382465 0.46900781405 0.44292866661 0.16222833989 
0.45405152725 0.5019412764 0.15917593702 0.44795639398 0.54500401007 0.17434018207 0.41761804931 0.48921305703 0.13235973739 
0.35390728911 0.47764544332 0.23584887493 0.31600145876 0.49400671151 0.20523500269 0.26556610926 0.44657779341 0.22676971173 
0.2383149553 0.43447207317 0.2103851215 0.20233300358 0.44842006494 0.1852071357 0.17503668524 0.46534944521 0.13477441597 
0.18427020506 0.51023444222 0.12543744009 0.19707140397 0.40880400363 0.2121165783 0.17567924197 0.38861118595 0.20501914565 
0.15557230862 0.36526258723 0.23662208967 0.25959338491 0.54730040211 0.19856579327 0.2700534242 0.54341800202 0.15279445503 
0.22131921337 0.51635706868 0.20231468436 0.16228558269 0.48836564583 0.24129530549 0.15600011669 0.57573325164 0.19155246029 
0.14314627883 0.5321722109 0.14967930297 0.11769461257 0.5229013775 0.10947101812 0.10896124079 0.66858574732 0.11221004487 
0.25595384966 0.64867174148 0.17688341976 0.27554518872 0.65164853126 0.12434781551 0.27270774327 0.64487597069 0.11954005973 
0.25285950941 0.71715558933 0.1877866343 0.27497435291 0.72232917688 0.17430341385 0.24171413859 0.71496078197 0.14845797575 
0.27152006202 0.75864331026 0.11790393564 0.22580099199 0.78117798965 0.18949862455 0.22565450909 0.80795162106 0.15311574091 
0.18703748841 0.78553582868 0.15321038326 0.1502401863 0.76603030758 0.1872199352 0.14189000242 0.81808112432 0.15011855787 
0.13339142371 0.86440515163 0.14873865999 0.25228697013 0.45390181266 0.15613002029 0.37845134097 0.33833448429 0.2149401553 
0.37075176212 0.31868829016 0.20960964054 0.38256748597 0.31458165049 0.2190270016 0.354148604 0.27960414856 0.16560584719 
0.3760862153 0.24456908218 0.16376130597 0.32767639775 0.18437541178 0.14391814414 0.3205431951 0.27398545018 0.13171924984 
0.28780968157 0.23189212389 0.14908906233 0.2422230954 0.19956514761 0.14374729976 0.19026612761 0.19517403119 0.16415714904 
0.17731255289 0.19537274574 0.13158341316 0.23284732249 0.13204197038 0.15663025948 0.22457496893 0.25519420719 0.10879280713 
0.17555932077 0.24198187824 0.13702675252 0.13940264599 0.23561069064 0.15472013058 0.11864850101 0.19702110105 0.13981844769 
0.27936725709 0.32812439402 0.2466917182 0.25348961291 0.31638195401 0.17415694065 0.15829119096 0.35225228932 0.10193807183 
0.26621241831 0.28110361029 0.30875463255 0.18793807153 0.29280615452 0.28954735816 0.18836430817 0.24487776638 0.2897818328 
0.46321454493 0.22640270164 0.43717805685 0.4628555366 0.18393154171 0.42553955733 0.48615111068 0.15970558007 0.39004598377 
0.41902278366 0.12062036962 0.35246454041 0.45658842833 0.11839166532 0.29703186824 0.43149152372 0.11246210789 0.25082978546 
0.45522871591 0.20710310234 0.39731400835 0.40613172446 0.21117441991 0.34404184623 0.36823665208 0.1821290676 0.34458130808 
0.35950077958 0.15890266998 0.2951284767 0.34077213863 0.14046919744 0.27481878807 0.32599370324 0.16725941128 0.26345075573 
[...]
POINT_DATA 1000
SCALARS path_distance double
LOOKUP_TABLE default
0 0.05324989627 0.14732001367 0.20142592317 0.25388742974 0.30209007396 0.34537145218 0.3901580072 0.30616322562 
0.3540149079 0.37093232056 0.31154012935 0.26170852914 0.31095893144 0.15328185051 0.22650928249 0.26243925559 0.29326202758 
0.32961215576 0.1770382606 0.2980226169 0.38228084822 0.47182214959 0.51938518704 0.57147489218 0.62483389928 0.68422929541 
0.74353892209 0.64100679591 0.70100376018 0.74368987957 0.8156102557 0.88227320145 0.95533912934 0.75494053927 0.52602446648 
0.41229512324 0.46970938101 0.52577847699 0.55337461279 0.60574887042 0.64375801751 0.77742397203 0.57931328275 0.60515928479 
0.64379925914 0.69520209841 0.72835033357 0.73684442034 0.7785648665 0.84938502338 0.7540624709 0.79921771782 0.70077065025 
0.79231724719 0.63367932615 0.66060568931 0.68287389428 0.74845173926 0.6903179836 0.70725801888 0.72942242902 0.31843561025 
0.38056692584 0.45806524904 0.49896045163 0.55609680176 0.61998665155 0.6574300967 0.67378452861 0.6341419604 0.66485979835 
0.70407203562 0.78245532658 0.78436973655 0.80504459405 0.87548225758 0.8842937831 0.88464398382 0.45867252076 0.52706308116 
0.56472247918 0.39476316434 0.4539183305 0.50355256754 0.55135779461 0.55262991989 0.45414992694 0.53162845348 0.59290318114 
0.6267027942 0.68116876579 0.74874719853 0.82920374117 0.85786489418 0.91759949433 0.95500628813 0.68147696745 0.68239869592 
0.72735057612 0.77484420379 0.86797820843 0.91369394792 0.9499605582 0.98438019153 0.90657800153 0.97858212104 1.0387171048 
1.1175403372 0.81536412808 0.89139494751 0.90782373249 0.94422671508 0.99252679687 1.0085562677 1.0601687004 0.89799280209 
0.95514426875 0.91242511061 0.60181683429 0.62056335959 0.69004543218 0.73624784252 0.82307126293 0.88685566728 0.94679603427 
0.90196179148 0.94818723812 0.74333218693 0.80574574418 0.89207427923 0.95546521928 0.808845794 0.8474246541 0.88899974171 
0.97110799522 0.86253726561 0.061264352929 0.11671727818 0.16856592755 0.24552955877 0.30729806 0.34802250704 0.41264560299 
0.3622270609 0.3710519178 0.40434110233 0.47339179245 0.49692891521 0.55245243424 0.60183113023 0.69245761476 0.63663178387 
0.7274060945 0.79495675587 0.79612632879 0.43178431833 0.3938297991 0.44434570953 0.50656412209 0.57607608497 0.44799916279 
0.46569517941 0.49716079559 0.58766150064 0.64861636748 0.69467615481 0.69561120173 0.59550062671 0.64689860571 0.71940357413 
0.75342751646 0.79950547532 0.8592980512 0.90606449177 0.80203696269 0.83229829166 0.87643661856 0.72478677302 0.77189835181 
0.77414724583 0.85022600849 0.86307385018 0.92484881859 0.97333017416 0.99395341575 0.82851487907 0.88466353495 0.89344039025 
0.8979302408 0.92434291853 0.93886653098 0.99994112239 0.96745694085 1.0126295323 1.0207339192 1.074503394 1.076474848 
1.1235922065 0.73678318875 0.50632342704 0.52808740751 0.54374507365 0.58923942148 0.63061715702 0.71037014732 0.63729350309 
0.69337417188 0.74951421696 0.80550859483 0.8405640203 0.81889184471 0.77189425945 0.82998259798 0.87073738653 0.91701860423 
0.61087037041 0.6887730746 0.81353278568 0.68983751056 0.77127916019 0.81921001712 0.26770762117 0.31174604739 0.36062727848 
0.44691882413 0.51391827134 0.56682995933 0.31271195831 0.38527237074 0.43302129764 0.48835088779 0.52156290902 0.55420260677 
0.58034767689 0.64623784909 0.67713582053 0.53194877843 0.32644068035 0.43953297098 0.51420559293 0.56648911374 0.62026834484 
0.64033129071 0.63161562118 0.6931083295 0.76407437662 0.81210335552 0.69856912901 0.74295124239 0.53097957423 0.55830799478 
0.62116165246 0.67366507955 0.72399913532 0.68427424999 0.70716031015 0.76894476717 0.82800515989 0.58169903947 0.53948614714 
0.586117715 0.61109935574 0.62222199026 0.7550644805 0.59478019012 0.15836606053 0.06277966943 0.080717428063 0.14833285317 
0.18089092634 0.20045631915 0.26037124811 0.3166360389 0.37158036506 0.45388447728 0.47943652905 0.5428718662 0.57151023082 
0.50410356865 0.39650149002 0.47419015287 0.54793582691 0.58254691211 0.60014203415 0.49563257787 0.54710405879 0.31988052449 
0.44177761942 0.49940067114 0.55527125982 0.2081391298 0.28308516756 0.33368675696 0.38517473656 0.44635991844 0.57764448779 
0.61917312792 0.63762521228 0.39074152796 0.46957731794 0.50760486972 0.53900502387 0.58577503091 0.64251624116 0.42498525122 
0.44867023529 0.4702832851 0.35365649543 0.37509433683 0.43726815207 0.54666899969 0.59579209486 0.65436546422 0.69517212181 
0.70136772124 0.77323569843 0.70926044877 0.75748309001 0.61662049888 0.69938642408 0.73728175922 0.14863337578 0.19018915743 
0.19026791616 0.23026315784 0.31590391027 0.36818223986 0.41418742746 0.45222135947 0.50984128097 0.6005199381 0.65913601688 
0.73025351909 0.78128559054 0.82310350292 0.89726382646 0.84588054951 0.92844422296 0.85965617963 0.89900125088 0.94630549478 
0.99108176678 0.78919441345 0.84239512012 0.85933723681 0.91668804409 0.95765170598 0.93030281734 0.96743263225 0.46739980952 
0.52819228098 0.57338320064 0.45840654876 0.5233286549 0.62862944301 0.67699876253 0.69729903894 0.72964382972 0.76629508338 
0.7145021889 0.74818116875 0.81665214782 0.75950655078 0.81033781101 0.87848087178 0.91153646055 0.93241357674 0.99015692199 
0.52959948501 0.58844448936 0.65792207116 0.66394092957 0.59537998254 0.67376815558 0.68646342362 0.74866527939 0.80173360528 
0.84468161819 0.87382754078 0.86988758128 0.92152606464 0.92513526988 0.83220356399 0.78768921469 0.82906657114 0.85763982531 
0.90121680813 0.90560732191 0.85768614815 0.91664968204 0.95139081635 0.9868871403 1.0116119953 1.041068399 0.93001947831 
0.99628412798 0.24908426016 0.25142102162 0.33311223376 0.40256253623 0.44563503905 0.4181790783 0.49765510164 0.53396878247 
0.56365813869 0.52514724764 0.57396074616 0.6265172062 0.62922041722 0.63369757467 0.64884521022 0.71549591561 0.64512343834 
0.42657920206 0.4562591498 0.54960478203 0.61335760973 0.61842972479 0.48853721265 0.56361142439 0.62852335477 0.69009533689 
0.71095908351 0.74079581482 0.69533349599 0.74950854843 0.81189516813 0.8621841675 0.91395073319 0.91467984223 0.87478131041 
0.93033548616 1.0129423937 1.0388425278 1.1065269743 1.1325924634 1.1547077609 1.1281887047 1.0725041019 0.93217051859 
0.82758083849 0.77313629228 0.82553714878 0.86901278161 0.58136833052 0.6429559614 0.69123981994 0.19739556206 0.30538609992 
0.36128343915 0.38687744507 0.44151492937 0.52655205105 0.55767841057 0.58981001373 0.6177712109 0.63369896461 0.64572631809 
0.67397228497 0.70003130062 0.72858485884 0.79764073864 0.85465750515 0.91566255897 0.94497357694 1.0205955267 1.0757467761 
0.93489847284 0.70318395481 0.6477791261 0.68205719239 0.6936576048 0.70879513742 0.72751117381 0.76051531697 0.69528840997 
0.73210852745 0.66281581868 0.7445930184 0.78125725107 0.80083554952 0.81295983224 0.89227151798 0.92276938427 0.94383650277 
0.98817436795 1.026369429 0.85018678992 0.90649104967 0.95152134802 0.98639597752 1.0185395679 1.0586086989 1.0703432268 
0.59411158459 0.64683822591 0.72675187521 0.77677028529 0.79794808259 0.83728981837 0.85167598384 0.88569898046 0.93545954255 
0.97279973853 1.0032442784 1.004254467 1.0418275931 1.0797197951 0.74225697153 0.79928831981 0.84072251115 0.87988636672 
0.9219909576 0.95617044146 0.89635012491 0.95759846669 0.98994086694 0.99924960364 1.0340972006 1.0209956352 1.0825440422 
1.1329220188 1.0257931434 1.0689693317 1.0758566342 1.110787457 0.97131721388 0.605877479 0.47237551996 0.44194739711 
0.49925410225 0.52770414647 0.58328046129 0.63622201525 0.64409791445 0.67705563882 0.58750706658 0.64349529969 0.6724678202 
0.58954475983 0.65976198898 0.69468059967 0.75791118037 0.76409629613 0.79623138975 0.85695820566 0.72707883848 0.83322014575 
0.87808380062 0.44701639206 0.51598690103 0.52690798055 0.57285997738 0.62224937009 0.679435106 0.72501440646 0.75693136288 
0.78548090908 0.86171166054 0.74629339123 0.81137673954 0.82370303624 0.87090844836 0.88732081429 0.93543538007 0.99067890208 
1.0213497567 0.95015717668 1.0223927688 0.95381054911 1.0198041467 1.0909865409 0.96666698944 0.90062869725 0.91962953549 
0.96735971163 0.65311930345 0.70844464694 0.74015386912 0.78547506052 0.8101266927 0.87916521147 0.81869686524 0.74635923455 
0.77245348117 0.82503548347 0.85658590851 0.9143720832 0.9874817542 1.0129562935 1.071188155 1.1410922938 1.1044062666 
0.92740402524 0.70929847564 0.7718548366 0.85550918613 0.91736062687 0.97756999081 0.71848570372 0.78467239929 0.86752418331 
0.9454787997 1.0156873559 1.0551621388 1.071546825 0.78853516941 0.86204380128 0.91823765922 0.95746238682 1.0023370763 
1.0087808729 0.92192697036 0.947941211 0.95773687806 0.99172976017 0.9960092134 1.0854146652 1.1515672203 0.8872377984 
0.94673404513 0.95307961581 0.98523845154 1.0084165759 1.0747540242 0.59256446488 0.083552998123 0.090966213433 0.14758450668 
0.15263697367 0.21951500227 0.23184198696 0.33782319203 0.4048546017 0.44218659008 0.46288261657 0.47743124694 0.53041131123 
0.43291893576 0.49432790767 0.52965233089 0.55651286601 0.60661086581 0.66668655986 0.61729275099 0.62836174887 0.73755676881 
0.78494143878 0.83834519197 0.89100241009 0.84860392714 0.87068023582 0.90502572013 0.96371797261 0.92267741622 0.90075544848 
0.79808316535 0.8067736823 0.95181721119 0.68151505013 0.75268489794 0.80921382595 0.85607192747 0.88348347375 0.92764006981 
0.50322218952 0.56103149281 0.58615996805 0.6428327206 0.67754572256 0.76683105776 0.814295818 0.64535824776 0.74030371026 
0.79524330702 0.8560908062 0.87194633106 0.90444893284 0.8676358747 0.88736556999 0.94315781566 0.80634725076 0.92821396659 
0.98111848194 0.98420174124 1.0342635681 1.0395556974 0.65040875969 0.44295809499 0.49919732587 0.56068046027 0.57856883547 
0.61100888685 0.68904246825 0.6238900506 0.50978507279 0.5389523821 0.58194270068 0.60616475925 0.68090860542 0.60690144533 
0.61796154199 0.66864097389 0.67193961157 0.70372022027 0.68593533405 0.68687518861 0.69175387418 0.72762387975 0.73131851825 
0.74923902514 0.79467031155 0.85019547919 0.85466388817 0.12911837343 0.16916932154 0.21595031865 0.23670726771 0.26895389298 
0.2957325323 0.23168548077 0.28297943173 0.30848560959 0.32573719815 0.36441465425 0.42976613492 0.4581560582 0.51887307698 
0.56226982504 0.57012239619 0.50865950219 0.508784815 0.55063621588 0.62969024844 0.51557586278 0.32577807951 0.29908744798 
0.34529624732 0.40170489658 0.43562478873 0.47208836124 0.53915552265 0.48964089841 0.49809277029 0.55294309313 0.36999859582 
0.45488095569 0.49145770034 0.51775702646 0.17576699358 0.22202828177 0.072718880237 0.10122623109 0.15635225408 0.22780171234 
0.3036400953 0.32592982012 0.22854621769 0.28443144512 0.29352521365 0.2312455316 0.26199908137 0.29811849953 0.32867854829 
0.38318017382 0.43312037867 0.49974243691 0.55129618408 0.68840653275 0.77173091974 0.83188398982 0.90710540784 0.93047818453 
0.56214674806 0.59527272846 0.70515073882 0.75786825957 0.70907232497 0.75750665642 0.83494391171 0.77678942428 0.65372870874 
0.68675042622 0.50195382738 0.52128920955 0.59422109462 0.60007487186 0.64586358086 0.68677352242 0.34607491497 0.40407624676 
0.49466905881 0.53949152524 0.57326115387 0.66324229301 0.71944205164 0.73136650522 0.58821371468 0.67115390019 0.68474780977 
0.40718351251 0.50125957642 0.56279177638 0.61586269938 0.68711114785 0.74278519143 0.81172177075 0.87585697898 0.82897085718 
0.28485170903 0.19735387548 0.21609617982 0.26845739864 0.29934323363 0.32783898103 0.3911018042 0.44508209122 0.50892571883 
0.48302217126 0.54211459967 0.59431635029 0.63283020355 0.66170342754 0.7283448534 0.63946093862 0.69273981305 0.75293676078 
0.75482656877 0.8299751653 0.87590828895 0.8969784026 0.92898953289 0.87377061376 0.93686499561 0.97912091107 1.0600636427 
0.69554788585 0.73367127311 0.8188277585 0.87356209981 0.9131131499 0.96703212736 0.9787324943 0.98128331139 0.9934451705 
1.042554483 1.0720904799 1.1327365406 1.170614131 1.222742273 1.0324669956 1.1238083305 1.1904048741 1.2505610899 
1.1396008463 1.1718362216 0.54689857916 0.6382333034 0.7015733925 0.75406853709 0.70552181317 0.811218761 0.54852797302 
0.60976604044 0.64793909377 0.61743694301 0.67533545454 0.67968338535 0.70692205909 0.63178561594 0.68123134354 0.74465326772 
0.7906234089 0.82475091378 0.73430335315 0.79919409555 0.83196554483 0.89835339995 0.83413273084 0.88070460642 0.92866988 
0.95496570383 0.84625285787 0.8861569961 0.97088710954 1.0397002073 0.97887628141 1.0630406782 1.125041027 1.1363163961 
1.1887454546 1.1998371934 1.207251503 1.2343882621 0.86138417824 0.5622153507 0.60598677813 0.62527589938 0.69086204617 
0.72321980466 0.63328035988 0.40872877839 0.44931841258 0.51808134645 0.33121567386 0.3896381693 0.30159562677 0.36312320132 
0.44289911587 0.48831495624 0.56531273328 0.65510543187 0.36707274089 0.4403314672 0.48192824608 0.54308109353 0.58017404448 
0.58021545639 0.63775363324 0.67571583445 0.68700315053 0.71315738415 0.76527755761 0.78831595982 0.73843812869 0.75933847366 
0.48495813032 0.54568845286 0.59620204486 0.60309077573 0.50731323361 0.54542078844 0.56647843401 0.58008729489 0.55129090124 
0.59538841523 0.079596666993 0.17822587395 0.2317572817 0.29130313896 0.32362751671 0.36110700708 0.42221765939 0.5075624101 
0.55964950783 0.57669357931 0.60210787798 0.60636398455 0.68989969477 0.56209986785 0.63362415715 0.67894259955 0.72008530325 
0.64462776672 0.24601605313 0.26652318839 0.34266361563 0.37771569134 0.45166096642 0.52295835328 0.57201486883 0.61150758685 
0.63680446629 0.65482201154 0.53213452001 0.55663758372 0.6012563771 0.2669932311 0.31838428052 0.34313600802 0.39933264579 
0.44299774788 0.4453229209 0.28271584122 0.32782975266 0.39523677026 0.45298034328 0.45955953171 0.42764990772 0.35189133086 
0.42086861572 0.4852626961 0.54440012966 0.60420084325 0.65118136173 0.70735633182 0.7586116151 0.48973437405 0.56120281114 
0.58357470945 0.61786504634 0.67514631254 0.58887042544 0.61768076935 0.71028473734 0.75690190582 0.78943210926 0.83328953349 
0.39841275236 
FIELD FieldData 1
radius 1 1000 double
0.01 0.0094814304546 0.0086301775574 0.0081756413788 0.0077577912679 0.0073927147278 0.0070795733233 0.0067694990309 0.007362664321 
0.0070186450395 0.0069009064493 0.0073231822246 0.0076973534644 0.0073274396799 0.0085788789159 0.0079731194124 0.0076917308592 0.0074582668793 
0.0071920261794 0.0083774773118 0.0074228455138 0.006823034026 0.006238644576 0.005948861793 0.0056469196445 0.0053535034321 0.0050447888398 
0.004754284307 0.0052676181534 0.0049608710132 0.0047535666664 0.0044236928659 0.0041384109744 0.0038468166559 0.0047003856273 0.0059094964605 
0.006621288376 0.0062518393221 0.0059109503133 0.0057500610963 0.0054566564074 0.0052531456861 0.0045958840029 0.0056028299048 0.0054598745222 
0.0052529290423 0.0049897359602 0.0048270463527 0.0047862186447 0.0045906435742 0.0042767786298 0.0047045146998 0.0044968060368 0.0049620275762 
0.0045279434225 0.0053063582261 0.0051653837795 0.0050516311883 0.0047309846578 0.0050141660146 0.0049299412646 0.0048218740714 0.0072728590621 
0.0068347382039 0.0063250620444 0.0060716150551 0.005734429629 0.0053795161837 0.0051818130065 0.0050977566193 0.0053039038909 0.0051434563476 
0.0049456730222 0.0045728185549 0.0045640726797 0.0044706798954 0.0041666103328 0.0041300574194 0.0041286113236 0.0063212221791 0.0059033619569 
0.0056851790042 0.006738396096 0.0063513460225 0.0060437974149 0.0057616696263 0.0057543447208 0.0063498752437 0.0058764723389 0.0055272030602 
0.0053435076402 0.0050602522164 0.004729587051 0.0043639663269 0.0042406654336 0.0039947683744 0.0038480972481 0.0050586928786 0.0050540322856 
0.0048318746414 0.0046077556249 0.004197994388 0.0040104006341 0.0038675627752 0.0037367075948 0.004039040208 0.00375843622 0.0035390841824 
0.003270833207 0.0044247817929 0.0041008330889 0.0040340117832 0.0038898024719 0.0037063897741 0.0036474519405 0.0034639736802 0.0040738654506 
0.0038475663219 0.0040154924096 0.0054781544153 0.0053764146678 0.0050155328189 0.0047890748484 0.0043908104819 0.0041194902324 0.0038798211559 
0.004057728367 0.0038744272866 0.0047552672864 0.0044675463763 0.004098048209 0.0038463316416 0.0044537182051 0.0042851709186 0.0041106672008 
0.0037866324852 0.0042208976867 0.0094057456327 0.0088983673386 0.0084487556101 0.0078229015992 0.0073543136556 0.007060829842 0.0066189681552 
0.0069612428729 0.0069000811692 0.0066741642514 0.0062288598134 0.0060839622999 0.0057553661251 0.0054780761005 0.005003449018 0.0052907145329 
0.004831606391 0.0045160076358 0.0045107289231 0.0064934941435 0.0067446884168 0.0064124369845 0.0060256235687 0.0056209967623 0.0063890521893 
0.0062769859035 0.006082551712 0.0055562509561 0.0052276859622 0.0049923609702 0.0049876950602 0.0055128650802 0.0052366735984 0.0048704265419 
0.0047075028009 0.0044955122333 0.0042345922471 0.0040411148272 0.0044841462933 0.0043504826864 0.0041626357793 0.0048442785103 0.0046213494038 
0.0046109681563 0.0042731834346 0.0042186334256 0.0039659137179 0.0037782272526 0.0037011059383 0.0043669735335 0.0041285306054 0.0040924536424 
0.0040741203249 0.0039679205814 0.0039107085093 0.0036790110167 0.0038004829553 0.0036326251208 0.003603303897 0.003414672879 0.0034079476398 
0.0032510983287 0.0047865117214 0.0060270740811 0.0058973180837 0.0058056989884 0.0055474905453 0.0053226320965 0.0049146225035 0.0052872147234 
0.0049988651722 0.0047259607615 0.0044686059777 0.0043146709859 0.004409199917 0.004621368316 0.0043605687452 0.0041864273389 0.0039970895699 
0.005428781583 0.0050219184316 0.0044328925079 0.005016575765 0.0046242117907 0.0044077972544 0.0076513145664 0.0073216744045 0.0069723882595 
0.0063959582592 0.0059814727784 0.0056732102187 0.0073146057337 0.006802653266 0.0064854667915 0.0061363751735 0.0059359209218 0.0057453020509 
0.0055970373668 0.0052401349085 0.0050807011436 0.0058745902597 0.0072148717215 0.0064433727503 0.005979754419 0.005675144237 0.0053780010235 
0.005271177659 0.0053173202914 0.0050001942591 0.0046576485434 0.0044392335491 0.0049729636189 0.0047570791246 0.0058802866973 0.0057217637068 
0.0053731989594 0.0050983655779 0.0048480955497 0.0050445620585 0.0049304229864 0.0046350191278 0.0043692000311 0.0055894788482 0.0058304777618 
0.0055648352409 0.005427538614 0.0053675045729 0.0046998030919 0.005516838181 0.0085353727847 0.0093915037443 0.0092245431432 0.0086214409978 
0.0083452637858 0.0081835723578 0.0077076538749 0.0072859588744 0.0068964358035 0.0063515610397 0.0061913215652 0.0058107707821 0.0056467200935 
0.006040468193 0.0067266927441 0.0062238889228 0.0057814196464 0.0055847416906 0.0054873369164 0.0060918542817 0.0057862304474 0.0072623579929 
0.0064289258638 0.0060689427999 0.0057391655958 0.0081209404237 0.0075345561515 0.0071627811623 0.0068033174699 0.0063995339958 0.005612187685 
0.0053838943278 0.0052854611966 0.0067655500399 0.0062526650137 0.0060193556775 0.0058332836152 0.0055667425483 0.0052596729701 0.0065377942751 
0.0063847661103 0.0062482523953 0.0070211610603 0.0068722444516 0.0064579823606 0.0057887483472 0.0055112584898 0.0051977177176 0.0049898855378 
0.0049590657778 0.0046151731885 0.0049200792802 0.0046884498385 0.0053976549683 0.0049689009007 0.0047841259028 0.0086188504492 0.0082680272327 
0.008267376079 0.0079432454227 0.0072912950866 0.0069199106184 0.0066087707314 0.006362133223 0.0060059089645 0.0054852636219 0.0051729807828 
0.0048178683245 0.0045781706753 0.0043906689245 0.004076836282 0.0042917927817 0.0039516802572 0.0042330759908 0.0040697592368 0.0038817248282 
0.0037117494903 0.0045421055385 0.0043067776216 0.0042344263153 0.0039984110668 0.0038379308761 0.0039443425076 0.0038005753408 0.0062662950788 
0.0058966996439 0.0056361538554 0.0063229036708 0.0059254488421 0.0053332224887 0.0050813975421 0.0049792837433 0.0048208066232 0.004647316748 
0.0048943569769 0.0047322648959 0.0044190862554 0.0046789725359 0.0044470781365 0.0041541349896 0.0040190623632 0.00393602573 0.0037151838704 