# vtk DataFile Version 3.0
Fibers output - vtk
ASCII
DATASET UNSTRUCTURED_GRID
POINTS 10 DOUBLE
0.05678492828179138 0.4942617349495382 0.43169385413476935
0.15634620889376305 0.5321585066548341 0.2948337287667321
0.10525460075125737 0.7245589717743337 0.08708503680442936
0.5088261045620517 0.7674218360122227 0.16010726628695937
0.5347844258599961 0.713302436924417 0.1471575135929919
0.0600267401306156 0.2839554019862659 0.3506485906043322
0.21805098516314558 0.08179196429520497 0.4423800503426557
0.029989432623472867 0.2948067029746443 0.013913998892493007
0.6239149962749312 0.431464125111754 0.7218128830533436
0.9855375683039461 0.06337494614073702 0.17240686570929908
CELLS 9 27
2 1 0
2 2 1
2 3 2
2 4 3
2 5 0
2 6 5
2 7 5
2 8 0
2 9 8
CELL_TYPES 9
3
3
3
3
3
3
3
3
3
POINT_DATA 10
SCALARS path_distance float 
LOOKUP_TABLE default 
0.0
0.17343387160106288
0.46116258134834354
0.8735209568148556
0.9349248646470728
0.2254054075865083
0.497905642931163
0.563651140494934
0.6401164774975712
1.3938455403379808
CELL_DATA 9
SCALARS edge_length float 
LOOKUP_TABLE default 
0.17343387160106288
0.28772870974728065
0.41235837546651205
0.06140390783221714
0.2254054075865083
0.27250023534465473
0.3382457329084257
0.6401164774975712
0.7537290628404095
