# vtk DataFile Version 3.0
Fibers output - vtk
ASCII
DATASET UNSTRUCTURED_GRID
POINTS 2 DOUBLE
0.5 0.5 0.0
0.5 0.5 1.0
CELLS 1 3
2 1 0
CELL_TYPES 1
3
POINT_DATA 2
SCALARS path_distance float 
LOOKUP_TABLE default 
0.0
0.9389140911820132
