# vtk DataFile Version 3.0
Fibers output - vtk
ASCII
DATASET UNSTRUCTURED_GRID
POINTS 2 DOUBLE
0.505 0.51 0.1
0.495 0.490 0.9
CELLS 1 3
2 1 0
CELL_TYPES 1
3
POINT_DATA 2
SCALARS path_distance float 
LOOKUP_TABLE default 
0.0
0.9389140911820132
