# vtk DataFile Version 5.1
vtk output
ASCII
DATASET UNSTRUCTURED_GRID
POINTS 2 double
.5 .5 0
.5 .5 1
CELLS 2 2
OFFSETS vtktypeint64
0 2 
CONNECTIVITY vtktypeint64
1 0 
CELL_TYPES 1
3

POINT_DATA 2
SCALARS path_distance double
LOOKUP_TABLE default
0 0.74267438247 
FIELD FieldData 1
radius 1 2 double
0.1 0.05
