# vtk DataFile Version 5.1
vtk output
ASCII
DATASET UNSTRUCTURED_GRID
POINTS 10 double
0 1 2 0.11111111111 1.1111111111 2.1111111111 0.22222222222 1.2222222222 2.2222222222 
0.33333333333 1.3333333333 2.3333333333 0.44444444444 1.4444444444 2.4444444444 0.55555555556 1.5555555556 2.5555555556 
0.66666666667 1.6666666667 2.6666666667 0.77777777778 1.7777777778 2.7777777778 0.88888888889 1.8888888889 2.8888888889 
1 2 3 
CELLS 10 18
OFFSETS vtktypeint64
0 2 4 6 8 10 12 14 16 
18 
CONNECTIVITY vtktypeint64
0 1 1 2 2 3 3 4 4 
5 5 6 6 7 7 8 8 9 

CELL_TYPES 9
3
3
3
3
3
3
3
3
3

CELL_DATA 9
SCALARS center_x double
LOOKUP_TABLE default
0.055555555556 0.16666666667 0.27777777778 0.38888888889 0.5 0.61111111111 0.72222222222 0.83333333333 0.94444444444 

FIELD FieldData 1
center_xyz 3 9 double
0.055555555556 1.0555555556 2.0555555556 0.16666666667 1.1666666667 2.1666666667 0.27777777778 1.2777777778 2.2777777778 
0.38888888889 1.3888888889 2.3888888889 0.5 1.5 2.5 0.61111111111 1.6111111111 2.6111111111 
0.72222222222 1.7222222222 2.7222222222 0.83333333333 1.8333333333 2.8333333333 0.94444444444 1.9444444444 2.9444444444 

POINT_DATA 10
SCALARS x double
LOOKUP_TABLE default
0 0.11111111111 0.22222222222 0.33333333333 0.44444444444 0.55555555556 0.66666666667 0.77777777778 0.88888888889 
1 
FIELD FieldData 1
xyz 3 10 double
0 1 2 0.11111111111 1.1111111111 2.1111111111 0.22222222222 1.2222222222 2.2222222222 
0.33333333333 1.3333333333 2.3333333333 0.44444444444 1.4444444444 2.4444444444 0.55555555556 1.5555555556 2.5555555556 
0.66666666667 1.6666666667 2.6666666667 0.77777777778 1.7777777778 2.7777777778 0.88888888889 1.8888888889 2.8888888889 
1 2 3 
