# vtk DataFile Version 3.0
Fibers output - vtk
ASCII
DATASET UNSTRUCTURED_GRID
POINTS 1708 DOUBLE
43.0 105.0 93.0
43.5905 104.035 92.484
45.0736 102.64 89.369
45.4226 99.6721 92.4326
42.9302 102.261 85.1028
44.5818 102.832 84.9801
47.1276 96.8476 92.4695
43.9943 99.7907 92.9977
44.2609 102.537 86.508
45.8674 104.621 88.9132
55.541 85.545 91.5265
54.7321 85.2142 90.6924
48.1567 104.161 67.7156
53.0791 103.599 64.3048
47.3405 104.597 75.8637
46.0139 106.462 76.5818
45.9497 116.109 71.4985
44.6913 116.229 72.7038
61.2092 82.7243 92.9537
61.865 82.7308 90.7894
61.8075 75.0435 84.0705
62.9304 75.4415 82.6554
45.7959 103.934 80.2893
45.6866 100.171 79.6753
47.4788 94.899 74.383
45.3926 94.5078 73.5141
44.9581 110.457 73.9357
44.2571 108.893 73.5376
50.9356 91.9809 92.5535
53.9953 92.6971 95.0925
71.345 79.6972 89.0816
70.7659 77.1312 90.1021
50.4325 109.323 86.9159
46.6573 110.451 89.7347
41.4806 82.4187 60.9393
46.0456 85.849 65.8141
61.8734 76.1665 84.1202
57.5907 82.9513 81.1345
44.6944 115.078 91.0343
43.0 115.0 97.0
39.0 101.0 94.0
38.3769 101.39 93.3061
55.6973 110.237 83.8236
55.0784 112.415 84.5317
48.4037 95.5485 92.5834
45.3836 94.5949 91.8881
44.96 91.2237 69.7701
43.9887 92.4876 66.6288
79.3998 78.8714 85.4859
79.3478 79.3061 87.4563
48.8148 104.365 71.9763
52.2877 103.2 73.3643
43.0 102.0 83.0
41.3436 102.108 84.3765
81.5421 78.2128 82.8499
83.9734 75.546 83.4759
62.4823 79.487 94.8449
61.9092 81.7658 95.4662
40.733 93.1654 62.6419
41.6411 92.7754 61.7677
87.3895 72.0534 82.1863
87.2311 71.0393 83.7074
72.0 76.0 92.0
71.1151 76.2201 90.4352
39.2769 81.3206 59.0385
41.0767 80.5432 59.8849
45.3889 103.022 82.365
38.839 109.716 83.3266
66.9184 80.8266 89.681
66.4258 83.6859 89.0818
50.131 93.3684 92.7842
50.6054 96.4415 93.3306
58.6761 109.735 82.6339
59.0 110.0 83.0
50.0366 92.5141 73.5582
51.8856 92.9597 72.1366
33.4232 100.969 92.0593
33.1194 103.235 92.4745
56.1217 82.7135 88.1957
53.4508 83.9263 87.334
47.816 120.403 65.0276
48.8317 118.593 66.1802
51.6782 110.003 85.8854
51.2075 111.64 87.9454
57.6631 81.5487 86.7517
55.3046 81.2296 88.1003
42.9593 121.585 91.0732
46.4638 121.617 91.3158
48.7252 104.164 70.9141
52.9479 107.005 70.4799
43.1238 92.6737 65.3366
45.9231 92.1025 64.0914
89.6445 69.4024 75.9446
86.8722 68.5499 75.9292
36.6627 101.429 93.1897
38.1245 102.005 93.9371
35.7036 101.247 78.6117
36.0 102.0 76.0
82.7509 80.2204 88.3198
83.1722 82.5202 91.0904
63.4631 68.3545 82.2984
62.087 67.8202 79.0036
42.4758 90.6164 91.153
41.6206 90.0616 93.1435
37.0 95.0 59.0
37.0 94.0 59.0
80.0664 79.7244 87.7311
84.0803 75.4259 91.1608
57.4511 101.419 70.5404
58.0 102.0 72.0
91.1829 68.2253 74.6075
91.0 72.0 74.0
38.8734 94.5482 46.192
42.19 97.0219 49.5802
48.6544 79.7798 59.8224
47.604 80.7713 58.907
37.5444 102.104 81.6632
37.4542 100.483 83.9859
55.0 74.0 57.0
53.2276 75.1719 58.9066
75.4129 79.8392 87.5092
76.0269 85.0243 90.0807
46.5017 104.318 58.6679
47.5607 103.878 57.9557
54.2548 104.164 64.0241
54.6889 101.46 60.6427
42.0808 121.119 74.0424
44.6234 122.575 75.6515
72.1178 79.7462 88.7389
76.3988 80.3539 93.6586
45.0 106.0 53.0
44.0291 106.161 54.7262
50.4335 77.3103 59.0621
48.0368 76.5059 55.5019
37.938 86.2152 95.4672
38.0 91.0 98.0
84.3382 73.5896 92.6282
86.7995 75.0478 92.7244
36.4942 101.606 79.2033
34.764 103.687 81.3176
55.4052 84.0819 89.1487
51.2164 82.3996 92.0386
47.1504 82.7318 63.2301
46.0 85.0 65.0
51.5171 73.6135 88.1307
51.0464 74.525 86.5746
47.8033 82.1803 61.8473
47.2222 81.2213 64.1755
42.8639 99.8235 92.9416
43.2957 99.5928 94.7807
47.9516 74.6775 68.8704
46.9868 75.6795 70.2075
85.0365 69.2617 93.3046
84.7395 70.4799 94.1279
29.0 100.0 94.0
29.8071 97.2905 90.4185
48.1536 80.9292 60.3633
48.4512 82.4674 61.0968
46.7517 105.803 88.5663
42.8177 106.778 90.7516
51.4286 70.5169 87.4643
53.0165 70.3621 88.8322
30.918 99.2842 77.5846
30.6321 96.8923 74.8772
73.0307 69.3156 90.4007
73.847 70.923 93.5827
40.9982 94.0427 54.4994
45.025 93.85 54.9166
92.7209 75.3767 94.5074
96.2889 72.4196 93.3844
87.806 70.1669 79.707
91.1905 71.0701 80.2239
69.6771 70.8479 77.3596
70.7887 69.6658 78.7965
73.498 79.932 88.2529
72.0 76.0 84.0
50.4386 90.347 72.4926
50.0 89.0 75.0
57.573 82.7723 80.2785
56.8886 85.6699 80.0391
42.0 125.0 90.0
40.0 122.0 92.0
93.0976 64.6934 87.5399
89.825 64.3551 88.2462
54.554 84.2475 53.8524
52.6792 80.9021 52.5615
40.4715 89.921 93.6877
41.7857 88.6106 94.5598
58.2868 84.2595 91.4522
57.9816 86.2174 91.9116
38.7458 93.8363 45.0225
38.2646 95.5632 45.6769
45.4813 104.849 57.0559
43.8109 103.742 56.8078
48.2777 69.8884 69.2372
43.0 70.0 71.0
47.9149 104.657 64.5383
47.7007 106.39 65.2995
49.0 74.0 87.0
50.786 74.0123 85.5202
53.6379 108.586 70.9435
54.3426 108.899 69.5933
56.9187 115.951 82.2892
59.5165 116.637 83.5695
47.7191 104.476 75.1616
47.3617 103.301 75.7628
48.0415 104.627 65.6234
47.0329 103.154 67.0652
59.9446 83.3491 91.3331
60.0 85.0 93.0
35.4797 104.455 97.0791
37.5666 102.76 97.8751
42.6123 98.2644 98.2611
40.7515 98.9304 98.4569
47.8114 107.722 87.7639
50.5192 105.309 88.9679
84.0 79.0 81.0
82.4239 79.9214 81.391
93.9366 64.09 88.8477
95.0 63.0 85.0
51.2673 82.8451 57.2547
53.7548 84.6037 59.8272
60.3399 109.36 81.5067
61.6939 108.298 82.8869
72.7161 68.1353 90.571
73.1604 68.2013 89.4843
54.2344 102.178 72.4918
54.7735 104.656 75.1708
71.9748 68.4077 71.8294
70.3022 68.7828 71.9862
55.4385 101.562 59.2478
55.0211 100.149 60.7834
43.271 120.157 74.0624
40.7796 117.906 71.8375
68.1008 84.7468 85.7925
69.1918 85.825 86.9146
57.1159 80.7518 75.7365
58.0 85.0 73.0
32.1626 99.4044 77.4434
33.9019 102.17 76.0699
55.0 72.0 58.0
55.58 70.6979 58.5494
28.0 100.0 76.0
27.0 100.0 78.0
94.0 73.0 80.0
94.3177 70.1488 80.7131
41.0 87.0 89.0
40.7225 87.7055 87.378
52.9618 105.835 90.4849
55.246 103.389 86.7934
66.6934 73.0398 79.948
64.1948 73.5721 79.1714
52.9997 88.6283 91.9687
50.8612 88.6986 94.4433
65.0 64.0 83.0
63.9644 64.3348 82.38
38.7388 110.548 82.6789
36.1365 112.039 84.3529
42.0003 93.0277 58.9403
45.0 87.0 55.0
46.4715 84.6429 64.4399
46.9609 84.3865 67.6167
57.0 104.0 78.0
58.0 109.0 76.0
91.4813 67.4249 74.5033
94.0 67.0 72.0
42.9018 91.4088 91.9901
45.7138 94.7261 90.9008
89.1722 67.9047 86.1391
83.0 66.0 88.0
45.3395 117.644 90.8699
45.3059 117.206 89.5562
87.8027 69.8683 78.9046
87.9585 67.5426 79.8706
40.0308 108.06 68.8895
39.0 105.0 69.0
57.013 87.1867 51.4037
59.2331 88.4962 53.4834
45.7268 86.5046 66.43
42.8369 88.2825 68.1218
56.8994 84.9704 91.5012
57.0 80.0 92.0
64.7194 106.319 82.7563
66.0665 105.227 84.9801
68.5156 65.5315 67.9227
68.9475 63.2011 63.8438
54.5927 85.9957 91.539
53.7498 88.5571 90.6233
74.0932 69.1037 69.6362
74.8234 66.8927 68.3898
64.0 118.0 85.0
60.0 119.0 82.0
45.741 98.3261 77.9705
47.0287 100.381 79.5559
27.0 93.0 75.0
30.2839 96.6691 71.0524
61.0 91.0 52.0
61.5325 89.0561 55.8964
41.6084 88.4216 67.6239
40.4576 85.197 69.2949
44.9955 116.525 90.6573
42.1031 115.984 90.9783
51.9442 71.6784 88.0723
48.8506 72.1808 90.7905
49.0 123.0 63.0
46.0 121.0 64.0
43.8364 98.6585 100.937
42.5193 97.0715 101.014
51.8952 82.6972 56.3656
49.7841 84.4811 54.1818
55.626 85.1286 53.5443
54.5472 84.4412 51.7255
64.455 74.129 80.9541
63.2813 77.3305 81.223
62.1221 72.0731 82.679
59.8929 71.5583 84.2182
71.9586 73.9105 90.9928
74.7517 74.3307 90.1078
41.6768 107.287 52.7374
42.6742 109.257 52.9727
37.0 91.0 41.0
39.9202 93.1265 42.6932
34.0 113.0 85.0
35.0798 113.396 84.5423
76.7019 80.3879 94.2861
78.0 81.0 94.0
61.8285 81.9283 94.5062
63.4799 83.6516 94.3219
44.91 114.134 91.2073
48.0 111.0 100.0
64.1936 83.2659 99.8891
62.0 83.0 100.0
40.782 93.9534 53.3456
39.7404 95.4665 54.1277
44.0 77.0 90.0
50.9239 81.7184 93.5184
81.9047 78.9814 82.2059
82.0 75.0 74.0
39.0361 84.607 70.1604
41.0 84.0 70.0
79.7068 80.3106 97.3258
82.0 78.0 97.0
54.1139 97.9811 92.694
55.4313 97.9533 93.6859
82.068 82.2612 79.9635
85.0 83.0 81.0
44.9274 120.157 86.1636
47.115 120.451 85.111
30.2043 106.531 81.0647
31.0201 107.895 79.6806
56.7341 117.102 82.1357
57.9194 116.823 79.1509
50.0 69.0 77.0
52.4407 66.0647 81.4606
66.9823 84.2838 88.167
67.793 84.2364 90.4592
76.889 86.412 90.1142
78.0 88.0 94.0
63.2514 72.259 72.6585
66.0 71.0 71.0
49.0 68.0 70.0
48.6525 69.1967 68.5019
37.5166 110.121 64.4402
38.0587 109.462 63.3572
62.9854 82.6104 98.841
62.5439 79.5161 98.8585
40.5122 94.4581 51.8421
39.5316 91.1569 51.3205
56.5779 114.109 83.9038
55.5684 113.584 85.7428
87.5367 74.9362 92.9506
87.1717 75.885 94.4777
50.0 92.0 47.0
49.3916 95.3747 50.2266
59.1856 97.6986 94.4752
58.9908 97.351 92.2107
38.281 85.0955 83.7602
36.931 83.6742 84.9707
38.3755 97.2883 44.4524
36.0 102.0 45.0
35.0 110.0 62.0
34.9646 111.777 63.4962
72.9648 67.649 90.6659
70.9048 66.5347 91.9139
41.4204 100.086 93.0806
39.0 96.0 89.0
87.8884 71.3637 80.9794
87.4725 72.5752 81.2994
36.0 85.0 80.0
36.0 86.0 79.0
36.2768 96.1539 52.9688
33.0 103.0 56.0
48.2847 103.107 52.7809
49.6628 104.568 54.2037
48.3876 104.127 73.6491
52.0 108.0 77.0
46.9743 72.5695 69.4368
51.0608 72.8836 70.9966
52.0012 90.1409 92.2939
51.0 92.0 90.0
81.0 84.0 77.0
78.0 86.0 75.0
54.8961 92.4644 96.4403
57.0 93.0 94.0
37.0274 115.248 80.3287
39.0 118.0 78.0
90.1831 66.462 86.9468
91.0 67.0 88.0
39.3159 101.75 83.1432
38.0 104.0 87.0
39.8806 86.6482 86.6599
43.2042 87.0718 85.4563
78.245 79.5403 86.622
75.9538 82.1279 85.4867
31.7162 103.861 73.6504
32.2118 104.934 74.4786
45.713 97.2886 76.9615
46.4584 97.122 78.7638
61.7419 73.5933 83.4089
61.3359 73.2616 86.8185
39.957 79.1695 58.3321
42.0 78.0 61.0
57.0 91.0 101.0
57.5829 90.356 100.148
57.0 80.0 74.0
55.9212 78.1812 75.3027
53.9221 73.7116 58.5346
54.8691 75.656 60.0552
73.1753 68.3176 70.2041
73.3862 66.6883 72.4022
52.1308 76.3564 58.6833
50.2322 74.0336 59.0001
35.5893 105.305 97.7138
30.0 104.0 99.0
50.0 67.0 87.0
47.0 65.0 85.0
36.3092 115.596 79.6003
36.2249 118.499 81.7045
44.0 99.0 102.0
45.5653 99.0819 101.681
36.0771 82.3619 84.0911
36.3416 83.9025 85.0195
38.0 107.0 51.0
38.7885 107.825 53.3722
31.7366 116.762 84.4933
31.0 115.0 83.0
[...]
CELL_DATA 1707
SCALARS radius float 
LOOKUP_TABLE default 
1.56672
1.25143
1.23367
0.502766
1.14919
1.2086
0.482233
1.18041
0.680453
0.965611
0.829781
0.545654
0.427629
0.728334
0.597678
0.393486
0.366929
0.407052
0.932749
0.475873
0.663115
0.843874
0.951934
0.390133
0.913464
0.492923
0.440451
1.14912
0.302625
0.861585
0.474319
0.542682
0.462916
0.309938
0.741085
0.736407
0.336128
0.45035
0.150766
0.11494
0.412424
0.422725
0.386912
1.17178
0.53892
0.782551
0.646333
0.67056
0.594082
0.67157
0.424332
0.105921
0.501194
0.323578
0.640339
0.2672
0.339978
0.345991
0.596956
0.562139
0.434109
0.124116
0.471469
0.248147
0.243811
1.13537
0.378228
0.908838
0.38838
1.15607
0.399638
0.406226
0.103049
0.232025
0.344525
0.25731
0.277856
0.813814
0.251423
0.207366
0.336706
0.53319
0.201984
0.759047
0.466708
0.208334
0.228662
0.622898
0.394072
0.635749
0.235429
0.351755
0.288113
0.358475
0.28879
0.434543
0.128146
0.218441
0.220338
0.308914
0.35235
0.462112
0.36994
0.143779
0.139963
0.312807
0.563641
0.399828
0.119209
0.337716
0.171069
0.392848
0.221586
0.571184
0.265989
0.482558
0.224382
0.152486
0.491943
0.80569
0.310287
0.449708
0.32742
0.21938
0.407445
0.227877
0.282817
0.822466
0.436595
0.145865
0.424235
0.518872
0.350977
0.286343
0.139736
0.346917
0.515905
0.438226
0.304421
0.821736
0.254369
0.730756
0.0925497
0.339512
0.361827
0.67093
0.445149
0.4208
0.335105
0.382812
0.210076
0.219527
0.25211
0.143807
0.220506
0.589798
0.459231
0.669262
0.248204
0.232868
0.257031
0.252433
0.256522
0.366051
0.314091
0.554062
0.303755
0.294439
0.367776
0.465356
0.395909
0.568911
0.331852
0.820747
0.151571
0.186118
0.137742
0.297042
0.227453
0.168779
0.161782
0.316867
0.277332
0.374542
0.226168
0.325312
0.253037
0.958438
0.258107
0.291584
0.329694
0.43389
0.185619
0.319794
0.17584
0.523663
0.17886
0.123439
0.356973
0.213421
0.371992
0.331942
0.205893
0.725646
0.162146
0.530528
0.235973
0.957905
0.11366
0.24922
0.183323
0.277486
0.240025
0.637448
0.344116
0.133523
0.293762
0.292418
0.189555
0.430355
0.237345
0.298235
0.334469
0.322647
0.24912
0.409795
0.196495
0.473061
0.4195
0.393744
0.187549
0.325398
0.230029
0.31483
0.225792
0.251558
0.165094
0.320642
0.34644
0.1339
0.461647
0.140629
0.152132
0.160635
0.38689
0.120208
0.455168
0.321266
0.196526
0.612724
0.380924
1.14373
0.270835
0.146198
0.281308
0.305346
0.29487
0.585608
0.168626
0.73125
0.251933
0.147741
0.16339
0.316933
0.188354
0.530515
0.193183
0.384484
0.184691
0.294016
0.31089
0.411578
0.314327
0.420522
0.134772
0.216232
0.296514
0.758732
0.305718
0.964637
0.139594
0.275993
0.222626
0.347556
0.254234
1.13746
0.290263
0.20132
0.383741
0.173511
0.151894
0.945956
0.252763
0.171388
0.227958
0.185059
0.270223
0.183142
0.282021
0.381363
0.329804
0.309366
0.211987
0.173796
0.154213
0.205005
0.183752
0.402453
0.24396
0.343953
0.22799
0.658322
0.18448
0.421545
0.200436
0.433772
0.231667
0.285677
0.363026
0.186412
0.23782
0.128849
0.28643
0.433533
0.12024
0.387916
0.208561
0.455913
0.164289
0.265726
0.120071
0.52356
0.298409
0.17186
0.224947
0.302683
0.1832
0.274721
0.119282
0.296602
0.155239
0.215052
0.342907
0.256331
0.152258
0.237738
0.247713
0.259172
0.194419
0.234107
0.287423
0.174403
0.241056
0.35895
0.231047
0.294098
0.164314
0.33953
0.159626
0.154576
0.307272
0.293229
0.289687
0.273659
0.218401
0.415067
0.416031
0.356487
0.232806
0.473898
0.313748
0.187003
0.231107
0.230239
0.289566
0.248694
0.372731
0.277004
0.199399
0.15168
0.21549
0.189665
0.299128
0.415379
0.141665
0.546068
0.245541
0.149748
0.162657
0.246869
0.193785
0.242743
0.252622
0.723862
0.141114
0.336615
0.261869
1.14877
0.111345
0.154126
0.202455
0.295081
0.12644
0.268994
0.159778
0.375972
0.154559
0.498216
0.130675
0.443746
0.190588
0.799578
0.227739
0.301468
0.183174
0.940579
0.243024
0.436138
0.291631
0.21938
0.157873
0.134688
0.259444
0.141924
0.235497
0.465372
0.263367
0.401387
0.345373
0.496779
0.257608
0.221399
0.166632
0.149544
0.192072
0.196255
0.228336
0.113369
0.192728
0.344986
0.220526
0.167319
0.222247
0.256142
0.143868
0.337629
0.196422
0.454766
0.220689
0.250196
0.197064
0.215753
0.232563
0.230306
0.173777
0.123749
0.217721
0.256116
0.195853
0.172739
0.332311
0.164801
0.161236
0.102438
0.294151
0.511035
0.262661
0.296259
0.316778
1.56559
0.202536
0.123965
0.314992
0.302594
0.248214
0.218822
0.186359
0.774929
0.240252
0.350337
0.203895
0.25066
0.15063
0.189739
0.164684
0.121351
0.258581
0.158632
0.174123
0.396837
0.211891
0.339137
0.164542
0.452094
0.18153
0.26443
0.228082
0.19214
0.202298
0.936594
0.219196
0.275742
0.262266
0.167534
0.117091
0.391839
0.318276
0.268293
0.281052
0.292097
0.263585
0.150543
0.228103
0.38801
0.174993
0.622016
0.100838
0.422224
0.222272
0.444931
0.142075
0.256876
0.171716
0.130846
0.309317
0.248962
0.200389
0.114935
0.214465
0.843368
0.102639
0.139162
0.27856
0.273323
0.14594
0.514631
0.172499
0.297032
0.201822
0.196347
0.143615
0.238987
0.133409
0.127715
0.306529
0.227596
0.269434
0.167835
0.180731
0.218791
0.24691
0.239255
0.149486
0.322852
0.295302
0.195296
0.306196
0.22158
0.210297
0.168871
0.176354
0.331668
0.156542
0.189329
0.192061
0.113776
0.178879
0.138097
0.175189
0.190032
0.157217
0.637795
0.146078
0.151644
0.203101
0.156106
0.167178
0.206154
0.282277
0.482047
0.161329
0.238087
0.227126
0.221404
0.196099
0.420466
0.235394
0.212055
0.22526
0.144949
0.216281
0.230005
0.174553
0.272467
0.140798
0.215896
0.194322
0.406139
0.245607
0.222814
0.11132
0.369057
0.23846
0.14917
0.183651
0.347193
0.263573
0.167755
0.152664
0.189384
0.151542
0.40333
0.147453
0.202195
0.20819
0.1552
0.200933
0.188915
0.16108
0.167474
0.218167
0.411358
0.149127
0.231552
0.142235
0.147929
0.173136
0.207958
0.308746
0.90706
0.16384
0.19432
0.164231
0.453187
0.155693
0.178779
0.310367
0.279201
0.158564
0.406487
0.192834
0.590232
0.192267
0.185563
0.12426
0.162577
0.249701
0.25891
0.13008
0.147215
0.160663
0.320109
0.292828
0.13342
0.173284
0.308027
0.198161
0.121408
0.163282
0.188554
0.162333
0.150301
0.252561
0.267619
0.131705
0.168228
0.139037
0.182755
0.163541
0.38393
0.140737
0.184766
0.189752
0.158542
0.228976
0.219156
0.108739
0.108091
0.22616
0.248482
0.140593
0.564296
0.136998
0.280261
0.347338
0.402835
0.161827
0.178424
0.15668
0.41779
0.248173
0.398195
0.156795
0.451013
0.203646
0.147865
0.311515
0.268278
0.172202
0.142397
0.219319
0.137958
0.245134
0.313435
0.171915
0.205554
0.205738
0.146532
0.171147
0.441832
0.272231
0.908248
0.235017
0.331248
0.177968
0.179462
0.162149
0.351585
0.235426
0.390184
0.280543
0.313618
0.22176
0.141824
0.249981
0.129023
0.145952
0.221112
0.121844
0.200496
0.181228
0.146735
0.174325
0.266724
0.165179
0.176666
0.185876
0.269186
0.181024
0.232815
0.148491
0.221825
0.338628
0.362196
0.163571
0.567669
0.15066
0.143289
0.169863
0.207124
0.151217
0.361112
0.222882
0.146617
0.157417
0.130974
0.217339
0.125644
0.2156
0.159788
0.200732
0.420863
0.195812
0.165565
0.185096
0.163954
0.200065
0.182517
0.17047
0.137768
0.164779
0.606197
0.193751
0.184712
0.213877
0.168279
0.217488
0.176009
0.161026
0.21127
0.23411
0.181222
0.181238
0.251311
0.234706
0.168332
0.238349
0.25405
0.263586
0.345927
0.186115
0.129826
0.245479
0.175284
0.172945
0.247066
0.194963
0.287542
0.334029
0.23216
0.1429
0.297476
0.164702
0.153593
0.192184
0.16247
0.157836
0.238978
0.249747
0.111412
0.183472
0.285013
0.112953
0.120145
0.238442
0.136597
0.340149
0.283735
0.173072
0.281334
0.206367
0.430463
0.133757
0.290104
0.143955
0.266291
0.158201
0.122835
0.153251
0.379407
0.125501
0.27621
0.209304
0.24244
0.155048
0.273115
0.17075
0.185717
0.187386
0.301838
0.151078
0.126886
0.141177
0.184943
0.28482
0.501394
0.217214
0.146388
0.195242
0.229792
0.200341
0.244586
0.217508
0.17768
0.165107
0.274514
0.0851103
0.180867
0.215124
0.199627
0.219215
0.174739
0.297959
0.159802
0.180709
0.311944
0.219247
0.221889
0.174887
0.182931
0.0872861
0.152476
0.167761
0.385788
0.240054
0.169424
0.241464
0.284464
0.201542
0.251275
0.212429
0.259134
0.196636
0.117062
0.138538
0.157125
0.202102
0.144329
0.165113
0.28411
0.15649
0.309545
0.137173
0.281566
0.161984
0.487996
0.15262
0.141868
0.30413
0.164969
0.169796
0.379164
0.14272
0.282254
0.12534
0.16879
0.178811
0.166079
0.183999
0.58296
0.139454
0.11682
0.189683
0.367228
0.170858
0.286606
0.122801
0.372992
0.150097
0.245632
0.187064
0.429906
0.130636
0.173454
0.198673
0.399881
0.145684
0.322508
0.200296
0.110495
0.195216
0.208823
0.151186
0.20918
0.108135
0.151595
0.273054
0.307877
0.188089
0.218273
0.143975
0.160342
0.192417
0.160475
0.195188
0.126831
0.174446
0.40023
0.102416
0.205415
0.229362
0.16369
0.18656
0.186776
0.153986
0.317668
0.175006
0.293932
0.145412
0.11921
0.172452
0.18085
0.18457
0.276085
0.147908
0.137257
0.229234
0.333243
0.163722
0.237177
0.207432
0.291453
0.151158
0.206476
0.234904
0.457946
0.138292
0.189431
0.149173
0.159918
0.129834
0.203432
0.190591
0.160618
0.1666
0.212408
0.140112
0.224212
0.157794
0.215242
0.176389
0.21778
0.176907
0.209039
0.175466
0.288928
0.182387
0.19097
0.18838
0.119392
0.191834
0.20627
0.101781
0.221869
0.247063
0.233932
0.172758
0.595256
0.137233
0.167298
0.292059
0.136996
0.185878
0.246551
0.16168
0.303197
0.225606
0.187132
0.156473
0.346252
0.15843
0.209594
0.167032
0.271019
0.179534
0.159453
0.197848
0.446646
0.138189
0.442263
0.137467
0.156431
0.197083
0.292578
0.169291
0.205582
0.167288
0.12348
0.156583
0.237424
0.180954
0.207758
0.179284
0.261964
0.160085
0.217431
0.205638
0.142705
0.157756
0.1729
0.200247
0.278668
0.134712
0.244499
0.233354
0.227655
0.166288
0.272251
0.153186
0.168255
0.201643
0.322246
0.142336
0.151101
0.150555
0.425086
0.143453
0.175215
0.115582
0.140506
0.174115
0.206203
0.145266
0.173634
0.156554
0.157706
0.224815
0.479615
0.119033
0.33067
0.169875
0.231716
0.124115
0.266567
0.213749
0.192098
0.181306
0.376537
0.107149
0.210103
0.146728
0.227486
0.17137
0.178653
0.252682
0.187645
0.194871
0.212738
0.149669
0.184278
0.202943
0.399529
0.2158
0.186329
0.159661
0.124145
0.204162
0.276419
0.211697
0.313839
0.203156
0.152299
0.16725
0.164301
0.169146
0.136155
0.184481
0.326201
0.164251
0.198985
0.185902
0.191416
0.198665
0.408424
0.194956
0.212348
0.0876529
0.202562
0.193688
0.122435
0.263964
0.217384
0.148684
0.186278
0.0981715
0.178062
0.137416
0.187188
0.196956
0.195366
0.266821
0.359923
0.140546
0.134274
0.166774
0.271118
0.169415
0.128054
0.196792
0.270456
0.154897
0.348074
0.116309
0.138593
0.168082
0.14822
0.149489
0.154418
0.202256
0.184637
0.186695
0.134893
0.286994
0.235045
0.174159
0.521011
0.129469
0.173877
0.12499
0.138525
0.164474
0.183445
0.200637
0.153328
0.171951
0.171821
0.102391
0.235983
0.195662
0.129155
0.192613
0.208473
0.150823
0.159582
0.158513
0.21758
0.186621
0.138843
0.16977
0.666775
0.171882
0.264355
0.136976
0.274272
0.273973
0.214424
0.170506
0.192972
0.227728
0.171433
0.245707
0.178542
0.182696
0.124591
0.203804
0.327701
0.143929
0.311556
0.204785
0.174905
0.233243
0.201743
0.174848
0.1921
0.155548
0.192959
0.126471
0.205259
0.192965
0.35924
0.104888
0.93189
0.130815
0.15673
0.151166
0.633425
0.141058
0.136204
0.186057
0.235752
0.173361
0.116672
0.161325
0.14376
0.200837
0.179703
0.201039
0.144472
0.169425
0.210932
0.226617
0.163474
0.197447
0.164663
0.226816
0.233671
0.066206
0.150728
0.161302
0.604301
0.127711
0.151235
0.166028
0.161928
0.179709
0.176149
0.175872
0.116196
0.177746
0.209106
0.175186
0.438188
0.10943
0.330742
0.165231
0.193821
0.107109
0.310149
0.156292
0.197382
0.252271
0.185364
0.131592
0.150329
0.16252
0.203738
0.155335
0.120365
0.158044
0.171618
0.253424
0.231449
0.18165
0.242152
0.199055
0.169348
0.172006
0.286543
0.138938
0.464448
0.113687
0.349568
0.152294
0.149355
0.178547
0.197138
0.197638
0.261053
0.181241
0.205139
0.15239
0.140013
0.189735
0.241769
0.190751
0.301193
0.21085
0.124528
0.162276
0.209183
0.246436
0.315312
0.173209
0.236324
0.157366
0.103396
0.145708
0.386621
0.167547
0.228684
0.169653
0.152334
0.216253
0.19634
0.19503
0.216637
0.166617
0.151041
0.186876
0.185257
0.150485
0.119336
0.164625
0.210953
0.178188
0.293899
0.159964
0.219883
0.172334
0.195861
0.159454
0.167815
0.149386
0.171892
0.183679
0.173933
0.134955
0.28057
0.196383
0.164554
0.196524
0.298452
0.153907
0.136877
0.180504
0.205975
0.16342
0.215314
0.168942
0.123117
0.19593
0.279504
0.22217
0.193912
0.184195
0.143772
0.274424
0.17
0.186141
0.269422
0.143086
0.141635
0.130779
0.180426
0.21348
0.158641
0.190015
0.241083
0.168111
0.249117
0.183265
0.289697
0.126238
0.253413
0.206233
0.163393
0.140889
0.213123
0.200913
0.28742
0.163701
0.387447
0.140313
0.142559
0.200667
0.328999
0.179748
0.177032
0.206371
0.41457
0.146017
0.14789
0.183664
0.195497
0.170158
0.290808
0.146015
0.414387
0.173188
0.127574
0.146722
0.159566
0.206207
0.110399
0.155271
0.130837
0.221065
0.203497
0.145563
0.19177
0.158863
0.159861
0.166308
0.152698
0.212391
0.566975
0.123275
0.224046
0.161524
0.177699
0.174396
0.40704
0.131626
0.115151
0.140445
0.142008
0.188729
0.150732
0.15046
0.196425
0.130154
0.155642
0.192688
0.102863
0.150044
0.277215
0.151821
0.17344
0.19146
0.194483
0.207389
0.145648
0.131149
0.180822
0.181038
0.167039
0.131273
0.151486
0.203216
0.136971
0.178674
0.267836
0.180658
0.14383
0.187652
0.149922
0.145716
0.327711
0.13456
0.17303
0.187502
0.177624
0.201893
0.430949
0.11655
0.270862
0.196842
0.165786
0.174436
0.234766
0.187771
0.212423
0.216491
0.248645
0.122152
0.275884
0.164088
0.140166
0.169113
0.183403
0.199243
0.199238
0.216062
0.183225
0.217445
0.12344
0.196665
0.13916
0.166049
0.200086
0.136583
0.242935
0.184976
0.112841
0.160922
0.162583
0.169333
0.151476
0.13261
0.164415
0.207215
0.312185
0.167215
0.230224
0.157665
0.224242
0.226741
0.164451
0.157907
0.41836
0.118991
0.287817
0.15914
0.13747
0.165041
0.142218
0.154241
0.122216
0.185701
0.192282
0.154589
0.115071
0.152652
0.305944
0.112173
0.127536
0.163524
0.120129
0.166983
0.203268
0.163369
0.16668
0.187962
0.140323
0.154753
0.253757
0.135333
0.179929
0.16504
0.228534
0.154465
0.162869
0.16852
0.177612
0.167814
0.15689
0.198783
0.140092
0.160202
0.175793
0.200152
0.163448
0.178163
0.198684
0.202943
0.138387
0.169414
0.337444
0.155318
0.133267
0.126644
0.141497
0.189892
0.128469
0.167559
0.240603
0.18792
0.21849
0.130014
0.216465
0.18138
0.31396
0.184907
0.157875
0.20804
0.166886
0.225107
0.220535
0.145848
0.190018
0.131491
0.14131
0.158352
0.350905
0.146631
0.152718
0.187399
0.259098
0.156884
0.175333
0.184182
0.115811
0.145918
0.244056
0.117252
0.230432
0.182491
0.13754
0.193604
0.143917
0.175634
0.152128
0.191554
0.167535
0.16437
0.193916
0.148012
0.263973
0.156135
0.19153
0.198386
0.262051
0.204791
0.243152
0.219228
0.220214
0.0992599
0.13863
0.182788
0.160134
0.185344
0.298524
0.16189
0.589841
0.178675
0.141175
0.185078
0.286359
0.176831
0.166366
0.202669
0.311366
0.171048
0.192986
0.113058
0.245821
0.176561
0.434726
0.125537
0.135272
0.176304
0.166866
0.217717
0.138104
0.165541
0.259557
0.178276
0.137266
0.145168
0.177633
0.126024
0.190039
0.156511
0.185674
0.171063
0.194026
0.150686
0.170998
0.17107
0.24988
0.195766
0.150123
0.132398
0.251104
0.169316
0.178051
0.190687
0.193067
0.152233
0.173653
0.214319
0.151063
0.189852
0.154871
0.187119
0.21422
0.140731
0.1535
0.172795
0.236109
0.147017
0.177432
0.212431
0.174001
0.145657
0.13113
0.146552
0.247562
0.206014
0.166452
0.121275
0.157881
0.161993
0.232461
0.14434
0.240273
0.152369
